<event>
 7    1  0.8151806E-006  0.5030087E+03  0.7546771E-02  0.9393103E-01
        -11   -1    0    0    0    0  0.00000000000E+00  0.00000000000E+00  0.50000000000E+03  0.50000000000E+03  0.00000000000E+00 0.  1.
         11   -1    0    0    0    0 -0.00000000000E+00 -0.00000000000E+00 -0.50000000000E+03  0.50000000000E+03  0.00000000000E+00 0. -1.
         23    2    1    2    0    0  0.13217789469E+03 -0.60851641357E+01 -0.47668303304E+03  0.50300870077E+03  0.91011065223E+02 0.  0.
        -11    1    3    3    0    0  0.94288282551E+02  0.32085870998E+02 -0.23184331024E+03  0.25233133743E+03  0.00000000000E+00 0. -1.
         11    1    3    3    0    0  0.37889612136E+02 -0.38171035133E+02 -0.24483972280E+03  0.25067736335E+03  0.00000000000E+00 0.  1.
        -15    1    1    2    0    0 -0.24193682836E+02  0.18104176524E+00  0.17152520569E+03  0.17323227465E+03  0.17770000000E+01 0. -1.
         15    1    1    2    0    0 -0.10798421185E+03  0.59041223704E+01  0.30515782736E+03  0.32375902458E+03  0.17770000000E+01 0.  1.
</event>
<event>
 7    1  0.8151806E-006  0.5029776E+03  0.7546771E-02  0.9393172E-01
        -11   -1    0    0    0    0  0.00000000000E+00  0.00000000000E+00  0.50000000000E+03  0.50000000000E+03  0.00000000000E+00 0. -1.
         11   -1    0    0    0    0 -0.00000000000E+00 -0.00000000000E+00 -0.50000000000E+03  0.50000000000E+03  0.00000000000E+00 0.  1.
         23    2    1    2    0    0 -0.15383196265E+01 -0.30208476070E+01 -0.49441446511E+03  0.50297758049E+03  0.92354161898E+02 0.  0.
        -11    1    3    3    0    0  0.43954825536E+02 -0.12637586148E+02 -0.22937845340E+03  0.23389358725E+03  0.00000000000E+00 0.  1.
         11    1    3    3    0    0 -0.45493145163E+02  0.96167385405E+01 -0.26503601170E+03  0.26908399324E+03  0.00000000000E+00 0. -1.
        -15    1    1    2    0    0 -0.22226040704E+02  0.76238576735E+01  0.15970282717E+03  0.16143193869E+03  0.17770000000E+01 0.  1.
         15    1    1    2    0    0  0.23764360330E+02 -0.46030100665E+01  0.33471163793E+03  0.33559048083E+03  0.17770000000E+01 0. -1.
</event>
<event>
 7    1  0.8151806E-006  0.5036001E+03  0.7546771E-02  0.9391790E-01
        -11   -1    0    0    0    0  0.00000000000E+00  0.00000000000E+00  0.50000000000E+03  0.50000000000E+03  0.00000000000E+00 0.  1.
         11   -1    0    0    0    0 -0.00000000000E+00 -0.00000000000E+00 -0.50000000000E+03  0.50000000000E+03  0.00000000000E+00 0. -1.
         23    2    1    2    0    0 -0.20838334762E+02 -0.10142087766E+02 -0.49575556900E+03  0.50360008767E+03  0.85453882123E+02 0.  0.
        -11    1    3    3    0    0  0.26541313289E+02 -0.75364713278E+01 -0.70520254701E+02  0.75725464900E+02  0.00000000000E+00 0.  1.
         11    1    3    3    0    0 -0.47379648051E+02 -0.26056164381E+01 -0.42523531430E+03  0.42787462277E+03  0.00000000000E+00 0. -1.
        -15    1    1    2    0    0  0.16198014576E+02  0.11699631290E+02  0.38612842842E+03  0.38664916657E+03  0.17770000000E+01 0.  1.
         15    1    1    2    0    0  0.46403201861E+01 -0.15575435238E+01  0.10962714058E+03  0.10975074575E+03  0.17770000000E+01 0. -1.
</event>
<event>
 7    1  0.8151806E-006  0.1000000E+04  0.7546771E-02  0.8684367E-01
        -11   -1    0    0    0    0  0.00000000000E+00  0.00000000000E+00  0.50000000000E+03  0.50000000000E+03  0.00000000000E+00 0.  1.
         11   -1    0    0    0    0 -0.00000000000E+00 -0.00000000000E+00 -0.50000000000E+03  0.50000000000E+03  0.00000000000E+00 0. -1.
         23    2    1    2    0    0  0.10765892490E+03  0.57431770486E+02 -0.37002672857E+03  0.40034668260E+03  0.92026268211E+02 0.  0.
        -11    1    3    3    0    0  0.11400881560E+03  0.57469844229E+02 -0.37231432287E+03  0.39359719008E+03  0.00000000000E+00 0. -1.
         11    1    3    3    0    0 -0.63498906985E+01 -0.38073742386E-01  0.22875943010E+01  0.67494925127E+01  0.00000000000E+00 0.  1.
        -15    1    1    2    0    0 -0.57228413810E+02 -0.21413687069E+03  0.37425345537E+03  0.43496953609E+03  0.17770000000E+01 0.  1.
         15    1    1    2    0    0 -0.50430511093E+02  0.15670510021E+03 -0.42267268053E+01  0.16468378132E+03  0.17770000000E+01 0. -1.
</event>
<event>
 7    1  0.8151806E-006  0.1000000E+04  0.7546771E-02  0.8684367E-01
        -11   -1    0    0    0    0  0.00000000000E+00  0.00000000000E+00  0.50000000000E+03  0.50000000000E+03  0.00000000000E+00 0.  1.
         11   -1    0    0    0    0 -0.00000000000E+00 -0.00000000000E+00 -0.50000000000E+03  0.50000000000E+03  0.00000000000E+00 0. -1.
         23    2    1    2    0    0  0.43574404345E+02 -0.29998579217E+02  0.44364207723E+03  0.45601753071E+03  0.91296506826E+02 0.  0.
        -11    1    3    3    0    0  0.50976888416E+02 -0.53651682760E+02  0.24786207636E+03  0.25867499901E+03  0.00000000000E+00 0.  1.
         11    1    3    3    0    0 -0.74024840714E+01  0.23653103544E+02  0.19578000087E+03  0.19734253170E+03  0.00000000000E+00 0. -1.
        -15    1    1    2    0    0  0.78044861022E+02 -0.47060879160E+02 -0.15737430398E+02  0.92501627682E+02  0.17770000000E+01 0.  1.
         15    1    1    2    0    0 -0.12161926537E+03  0.77059458377E+02 -0.42790464683E+03  0.45148084161E+03  0.17770000000E+01 0. -1.
</event>
<event>
 7    1  0.8151806E-006  0.5028702E+03  0.7546771E-02  0.9393410E-01
        -11   -1    0    0    0    0  0.00000000000E+00  0.00000000000E+00  0.50000000000E+03  0.50000000000E+03  0.00000000000E+00 0.  1.
         11   -1    0    0    0    0 -0.00000000000E+00 -0.00000000000E+00 -0.50000000000E+03  0.50000000000E+03  0.00000000000E+00 0. -1.
         23    2    1    2    0    0 -0.91393750165E+02  0.20370267387E+03  0.44195361098E+03  0.50287024208E+03  0.87794585236E+02 0.  0.
        -11    1    3    3    0    0 -0.65249349650E+02  0.56249966145E+02  0.11924864804E+03  0.14711144204E+03  0.00000000000E+00 0. -1.
         11    1    3    3    0    0 -0.26144400515E+02  0.14745270773E+03  0.32270496295E+03  0.35575880004E+03  0.00000000000E+00 0.  1.
        -15    1    1    2    0    0  0.90866004348E+02 -0.18296095305E+03 -0.41892256200E+03  0.46608004867E+03  0.17770000000E+01 0. -1.
         15    1    1    2    0    0  0.52774581659E+00 -0.20741720823E+02 -0.23031048985E+02  0.31049709253E+02  0.17770000000E+01 0.  1.
</event>
<event>
 7    1  0.8151806E-006  0.5034742E+03  0.7546771E-02  0.9392069E-01
        -11   -1    0    0    0    0  0.00000000000E+00  0.00000000000E+00  0.50000000000E+03  0.50000000000E+03  0.00000000000E+00 0.  1.
         11   -1    0    0    0    0 -0.00000000000E+00 -0.00000000000E+00 -0.50000000000E+03  0.50000000000E+03  0.00000000000E+00 0. -1.
         23    2    1    2    0    0  0.86841137566E+02  0.45644380169E+03  0.17141227431E+03  0.50347416887E+03  0.90673831144E+02 0.  0.
        -11    1    3    3    0    0  0.60143048424E+01  0.39137779728E+02 -0.10739744475E+02  0.41027792729E+02  0.00000000000E+00 0. -1.
         11    1    3    3    0    0  0.80826832723E+02  0.41730602197E+03  0.18215201878E+03  0.46244637614E+03  0.00000000000E+00 0.  1.
        -15    1    1    2    0    0 -0.84902635472E+02 -0.45171513944E+03 -0.16551289965E+03  0.48852093342E+03  0.17770000000E+01 0. -1.
         15    1    1    2    0    0 -0.19385020937E+01 -0.47286622530E+01 -0.58993746593E+01  0.80048977158E+01  0.17770000000E+01 0.  1.
</event>
<event>
 6    1  0.8151806E-006  0.4861598E+03  0.7546771E-02  0.9431322E-01
        -11   -1    0    0    0    0  0.00000000000E+00  0.00000000000E+00  0.50000000000E+03  0.50000000000E+03  0.00000000000E+00 0. -1.
         11   -1    0    0    0    0 -0.00000000000E+00 -0.00000000000E+00 -0.50000000000E+03  0.50000000000E+03  0.00000000000E+00 0.  1.
        -11    1    1    2    0    0  0.15466931150E+02 -0.26000629509E+02  0.29145459480E+01  0.30393309660E+02  0.00000000000E+00 0. -1.
         11    1    1    2    0    0  0.33178356032E+02  0.15681461144E+02 -0.48268221456E+03  0.48407523360E+03  0.00000000000E+00 0.  1.
        -15    1    1    2    0    0 -0.33945586952E+01 -0.16707653299E+02  0.20726178409E+03  0.20796940539E+03  0.17770000000E+01 0.  1.
         15    1    1    2    0    0 -0.45250728486E+02  0.27026821664E+02  0.27250588453E+03  0.27756205135E+03  0.17770000000E+01 0. -1.
</event>
<event>
 7    1  0.8151806E-006  0.1000000E+04  0.7546771E-02  0.8684367E-01
        -11   -1    0    0    0    0  0.00000000000E+00  0.00000000000E+00  0.50000000000E+03  0.50000000000E+03  0.00000000000E+00 0.  1.
         11   -1    0    0    0    0 -0.00000000000E+00 -0.00000000000E+00 -0.50000000000E+03  0.50000000000E+03  0.00000000000E+00 0. -1.
         23    2    1    2    0    0  0.10520516065E+03 -0.38357930598E+02 -0.19171430422E+03  0.23650610198E+03  0.81494203271E+02 0.  0.
        -11    1    3    3    0    0  0.75181576341E+02 -0.63816813418E+02 -0.14592599398E+03  0.17612282877E+03  0.00000000000E+00 0. -1.
         11    1    3    3    0    0  0.30023584308E+02  0.25458882820E+02 -0.45788310235E+02  0.60383273208E+02  0.00000000000E+00 0.  1.
        -15    1    1    2    0    0 -0.39228319359E+03  0.10413748801E+03  0.22996825211E+03  0.46649681145E+03  0.17770000000E+01 0.  1.
         15    1    1    2    0    0  0.28707803294E+03 -0.65779557414E+02 -0.38253947892E+02  0.29699708657E+03  0.17770000000E+01 0. -1.
</event>
<event>
 7    1  0.8151806E-006  0.5034750E+03  0.7546771E-02  0.9392068E-01
        -11   -1    0    0    0    0  0.00000000000E+00  0.00000000000E+00  0.50000000000E+03  0.50000000000E+03  0.00000000000E+00 0. -1.
         11   -1    0    0    0    0 -0.00000000000E+00 -0.00000000000E+00 -0.50000000000E+03  0.50000000000E+03  0.00000000000E+00 0.  1.
         23    2    1    2    0    0 -0.14206644489E+03  0.14336982305E+03  0.45210946254E+03  0.50347497378E+03  0.91358098581E+02 0.  0.
        -11    1    3    3    0    0  0.68986323491E+01  0.32878098061E+02  0.45452420776E+02  0.56519757739E+02  0.00000000000E+00 0.  1.
         11    1    3    3    0    0 -0.14896507724E+03  0.11049172499E+03  0.40665704177E+03  0.44695521604E+03  0.00000000000E+00 0. -1.
        -15    1    1    2    0    0  0.20897620393E+02 -0.35322435502E+02 -0.12038072170E+03  0.12719693736E+03  0.17770000000E+01 0. -1.
         15    1    1    2    0    0  0.12116882450E+03 -0.10804738755E+03 -0.33172874085E+03  0.36932808886E+03  0.17770000000E+01 0.  1.
</event>
<event>
 7    1  0.8151806E-006  0.5026489E+03  0.7546771E-02  0.9393902E-01
        -11   -1    0    0    0    0  0.00000000000E+00  0.00000000000E+00  0.50000000000E+03  0.50000000000E+03  0.00000000000E+00 0. -1.
         11   -1    0    0    0    0 -0.00000000000E+00 -0.00000000000E+00 -0.50000000000E+03  0.50000000000E+03  0.00000000000E+00 0.  1.
         23    2    1    2    0    0  0.93134040254E+01 -0.23354801049E+02 -0.49393702247E+03  0.50264893540E+03  0.89721702285E+02 0.  0.
        -11    1    3    3    0    0 -0.19978987298E+02 -0.20069183905E+02 -0.47942110596E+02  0.55681038465E+02  0.00000000000E+00 0. -1.
         11    1    3    3    0    0  0.29292391323E+02 -0.32856171444E+01 -0.44599491187E+03  0.44696789693E+03  0.00000000000E+00 0.  1.
        -15    1    1    2    0    0  0.70955379534E+01 -0.27121419919E+01  0.35257662401E+03  0.35266292107E+03  0.17770000000E+01 0.  1.
         15    1    1    2    0    0 -0.16408941979E+02  0.26066943041E+02  0.14136039846E+03  0.14468814353E+03  0.17770000000E+01 0. -1.
</event>
<event>
 7    1  0.8151806E-006  0.5309824E+03  0.7546771E-02  0.9333034E-01
        -11   -1    0    0    0    0  0.00000000000E+00  0.00000000000E+00  0.50000000000E+03  0.50000000000E+03  0.00000000000E+00 0. -1.
         11   -1    0    0    0    0 -0.00000000000E+00 -0.00000000000E+00 -0.50000000000E+03  0.50000000000E+03  0.00000000000E+00 0.  1.
         23    2    1    2    0    0 -0.21762408530E+03 -0.20747444325E+03  0.34820214774E+03  0.46901758752E+03  0.91251710160E+02 0.  0.
        -11    1    3    3    0    0 -0.20584504509E+03 -0.14806320445E+03  0.27668624774E+03  0.37530011296E+03  0.00000000000E+00 0. -1.
         11    1    3    3    0    0 -0.11779040203E+02 -0.59411238805E+02  0.71515900000E+02  0.93717474557E+02  0.00000000000E+00 0.  1.
        -15    1    1    2    0    0  0.65847215393E+02 -0.40763859266E+02 -0.32790523697E+00  0.77464916241E+02  0.17770000000E+01 0. -1.
         15    1    1    2    0    0  0.15177686990E+03  0.24823830252E+03 -0.34787424250E+03  0.45351749624E+03  0.17770000000E+01 0.  1.
</event>
<event>
 7    1  0.8151806E-006  0.1000000E+04  0.7546771E-02  0.8684367E-01
        -11   -1    0    0    0    0  0.00000000000E+00  0.00000000000E+00  0.50000000000E+03  0.50000000000E+03  0.00000000000E+00 0.  1.
         11   -1    0    0    0    0 -0.00000000000E+00 -0.00000000000E+00 -0.50000000000E+03  0.50000000000E+03  0.00000000000E+00 0. -1.
         23    2    1    2    0    0  0.14138733726E+02 -0.32876053935E+03  0.30618573214E+03  0.45899611995E+03  0.92974940360E+02 0.  0.
        -11    1    3    3    0    0 -0.11928089113E+02 -0.22651505419E+03  0.25637207158E+03  0.34231270524E+03  0.00000000000E+00 0.  1.
         11    1    3    3    0    0  0.26066822839E+02 -0.10224548516E+03  0.49813660562E+02  0.11668341471E+03  0.00000000000E+00 0. -1.
        -15    1    1    2    0    0 -0.39947482890E+02  0.14292115017E+02  0.49708874903E+02  0.65377334865E+02  0.17770000000E+01 0.  1.
         15    1    1    2    0    0  0.25808749165E+02  0.31446842433E+03 -0.35589460704E+03  0.47562654519E+03  0.17770000000E+01 0. -1.
</event>
<event>
 7    1  0.8151806E-006  0.1000000E+04  0.7546771E-02  0.8684367E-01
        -11   -1    0    0    0    0  0.00000000000E+00  0.00000000000E+00  0.50000000000E+03  0.50000000000E+03  0.00000000000E+00 0. -1.
         11   -1    0    0    0    0 -0.00000000000E+00 -0.00000000000E+00 -0.50000000000E+03  0.50000000000E+03  0.00000000000E+00 0.  1.
         23    2    1    2    0    0 -0.99595266875E+02  0.12970094078E+03 -0.32050833925E+03  0.37157742086E+03  0.92750379725E+02 0.  0.
        -11    1    3    3    0    0 -0.34922740754E+02 -0.43221628663E+01 -0.35090210999E+02  0.49695088506E+02  0.00000000000E+00 0. -1.
         11    1    3    3    0    0 -0.64672526120E+02  0.13402310365E+03 -0.28541812825E+03  0.32188233235E+03  0.00000000000E+00 0.  1.
        -15    1    1    2    0    0  0.22933351478E+03 -0.20302744216E+03  0.36153663281E+03  0.47384163796E+03  0.17770000000E+01 0. -1.
         15    1    1    2    0    0 -0.12973824791E+03  0.73326501384E+02 -0.41028293560E+02  0.15458094118E+03  0.17770000000E+01 0.  1.
</event>
<event>
 7    1  0.8151806E-006  0.5042479E+03  0.7546771E-02  0.9390355E-01
        -11   -1    0    0    0    0  0.00000000000E+00  0.00000000000E+00  0.50000000000E+03  0.50000000000E+03  0.00000000000E+00 0.  1.
         11   -1    0    0    0    0 -0.00000000000E+00 -0.00000000000E+00 -0.50000000000E+03  0.50000000000E+03  0.00000000000E+00 0. -1.
         23    2    1    2    0    0  0.29362176753E+01 -0.24058200058E+01 -0.49546369592E+03  0.50424791446E+03  0.93633732805E+02 0.  0.
        -11    1    3    3    0    0  0.26483510917E+02 -0.44572561847E+01 -0.40047344141E+02  0.48218598652E+02  0.00000000000E+00 0.  1.
         11    1    3    3    0    0 -0.23547293242E+02  0.20514361789E+01 -0.45541635178E+03  0.45602931581E+03  0.00000000000E+00 0. -1.
        -15    1    1    2    0    0 -0.70740292686E+01  0.40205535247E+01  0.44101292097E+03  0.44109155618E+03  0.17770000000E+01 0.  1.
         15    1    1    2    0    0  0.41378115933E+01 -0.16147335189E+01  0.54450774944E+02  0.54660529362E+02  0.17770000000E+01 0. -1.
</event>
<event>
 7    1  0.8151806E-006  0.5039841E+03  0.7546771E-02  0.9390939E-01
        -11   -1    0    0    0    0  0.00000000000E+00  0.00000000000E+00  0.50000000000E+03  0.50000000000E+03  0.00000000000E+00 0. -1.
         11   -1    0    0    0    0 -0.00000000000E+00 -0.00000000000E+00 -0.50000000000E+03  0.50000000000E+03  0.00000000000E+00 0.  1.
         23    2    1    2    0    0  0.40824071803E+02  0.33494917562E+02 -0.49306083469E+03  0.50398413509E+03  0.90013928755E+02 0.  0.
        -11    1    3    3    0    0 -0.10902784494E+02 -0.19413130731E+02 -0.21837069269E+03  0.21950284686E+03  0.00000000000E+00 0.  1.
         11    1    3    3    0    0  0.51726856296E+02  0.52908048293E+02 -0.27469014200E+03  0.28448128822E+03  0.00000000000E+00 0. -1.
        -15    1    1    2    0    0 -0.17953698055E+02 -0.13017689648E+02  0.16013914275E+03  0.16167714213E+03  0.17770000000E+01 0.  1.
         15    1    1    2    0    0 -0.22870373748E+02 -0.20477227914E+02  0.33292169194E+03  0.33433872279E+03  0.17770000000E+01 0. -1.
</event>
<event>
 7    1  0.8151806E-006  0.1000000E+04  0.7546771E-02  0.8684367E-01
        -11   -1    0    0    0    0  0.00000000000E+00  0.00000000000E+00  0.50000000000E+03  0.50000000000E+03  0.00000000000E+00 0.  1.
         11   -1    0    0    0    0 -0.00000000000E+00 -0.00000000000E+00 -0.50000000000E+03  0.50000000000E+03  0.00000000000E+00 0. -1.
         23    2    1    2    0    0  0.15582933800E+03 -0.48500151277E+02 -0.35569824865E+03  0.40197029656E+03  0.91781414063E+02 0.  0.
        -11    1    3    3    0    0  0.13512789337E+02 -0.11805677945E+02 -0.13887760131E+03  0.14003198796E+03  0.00000000000E+00 0.  1.
         11    1    3    3    0    0  0.14231654866E+03 -0.36694473332E+02 -0.21682064734E+03  0.26193830859E+03  0.00000000000E+00 0. -1.
        -15    1    1    2    0    0  0.34001002192E+01 -0.18001401592E+03  0.55250557194E+02  0.18834114901E+03  0.17770000000E+01 0.  1.
         15    1    1    2    0    0 -0.15922943822E+03  0.22851416720E+03  0.30044769145E+03  0.40968855444E+03  0.17770000000E+01 0. -1.
</event>
<event>
 7    1  0.8151806E-006  0.5038906E+03  0.7546771E-02  0.9391146E-01
        -11   -1    0    0    0    0  0.00000000000E+00  0.00000000000E+00  0.50000000000E+03  0.50000000000E+03  0.00000000000E+00 0.  1.
         11   -1    0    0    0    0 -0.00000000000E+00 -0.00000000000E+00 -0.50000000000E+03  0.50000000000E+03  0.00000000000E+00 0. -1.
         23    2    1    2    0    0 -0.38893408296E+01 -0.90229375150E+01 -0.49595782752E+03  0.50389064825E+03  0.88515977936E+02 0.  0.
        -11    1    3    3    0    0  0.24473360841E+02 -0.26456579186E+02 -0.41199394862E+03  0.41356729763E+03  0.00000000000E+00 0. -1.
         11    1    3    3    0    0 -0.28362701670E+02  0.17433641671E+02 -0.83963878899E+02  0.90323350623E+02  0.00000000000E+00 0.  1.
        -15    1    1    2    0    0  0.12331866996E+00  0.50691755648E+00  0.31239599988E+02  0.31294448539E+02  0.17770000000E+01 0.  1.
         15    1    1    2    0    0  0.37660221596E+01  0.85160199585E+01  0.46471822753E+03  0.46481490321E+03  0.17770000000E+01 0.  1.
</event>
<event>
 7    1  0.8151806E-006  0.1000000E+04  0.7546771E-02  0.8684367E-01
        -11   -1    0    0    0    0  0.00000000000E+00  0.00000000000E+00  0.50000000000E+03  0.50000000000E+03  0.00000000000E+00 0.  1.
         11   -1    0    0    0    0 -0.00000000000E+00 -0.00000000000E+00 -0.50000000000E+03  0.50000000000E+03  0.00000000000E+00 0. -1.
         23    2    1    2    0    0  0.26171005291E+03 -0.93347326603E+01 -0.27775162223E+03  0.39255107305E+03  0.91493673439E+02 0.  0.
        -11    1    3    3    0    0  0.65797399535E+02  0.25791221787E+02 -0.11708115094E+03  0.13675701376E+03  0.00000000000E+00 0.  1.
         11    1    3    3    0    0  0.19591265337E+03 -0.35125954447E+02 -0.16067047129E+03  0.25579405930E+03  0.00000000000E+00 0. -1.
        -15    1    1    2    0    0 -0.15115746616E+03 -0.15028970310E+03  0.34193627040E+03  0.40293814063E+03  0.17770000000E+01 0.  1.
         15    1    1    2    0    0 -0.11055258675E+03  0.15962443576E+03 -0.64184648176E+02  0.20451078631E+03  0.17770000000E+01 0. -1.
</event>
<event>
 7    1  0.8151806E-006  0.5005387E+03  0.7546771E-02  0.9398605E-01
        -11   -1    0    0    0    0  0.00000000000E+00  0.00000000000E+00  0.50000000000E+03  0.50000000000E+03  0.00000000000E+00 0.  1.
         11   -1    0    0    0    0 -0.00000000000E+00 -0.00000000000E+00 -0.50000000000E+03  0.50000000000E+03  0.00000000000E+00 0. -1.
         23    2    1    2    0    0  0.20370856954E+03  0.33554789846E+03  0.29644821793E+03  0.50053874401E+03  0.92563031877E+02 0.  0.
        -11    1    3    3    0    0  0.51337199074E+02  0.24655743281E+02  0.37461531915E+02  0.68167294643E+02  0.00000000000E+00 0. -1.
         11    1    3    3    0    0  0.15237137047E+03  0.31089215518E+03  0.25898668602E+03  0.43237144937E+03  0.00000000000E+00 0.  1.
        -15    1    1    2    0    0 -0.14249082388E+03 -0.21286770577E+03 -0.24050123387E+03  0.35136917376E+03  0.17770000000E+01 0. -1.
         15    1    1    2    0    0 -0.61217745657E+02 -0.12268019270E+03 -0.55946984067E+02  0.14809208223E+03  0.17770000000E+01 0.  1.
</event>
<event>
 7    1  0.8151806E-006  0.5013120E+03  0.7546771E-02  0.9396879E-01
        -11   -1    0    0    0    0  0.00000000000E+00  0.00000000000E+00  0.50000000000E+03  0.50000000000E+03  0.00000000000E+00 0.  1.
         11   -1    0    0    0    0 -0.00000000000E+00 -0.00000000000E+00 -0.50000000000E+03  0.50000000000E+03  0.00000000000E+00 0. -1.
         23    2    1    2    0    0 -0.16644648007E+02  0.13474231475E+02 -0.49201514969E+03  0.50131203991E+03  0.93681666344E+02 0.  0.
        -11    1    3    3    0    0 -0.23579162733E+02  0.13925651735E+02 -0.49345582059E+03  0.49421508230E+03  0.00000000000E+00 0. -1.
         11    1    3    3    0    0  0.69345147253E+01 -0.45142025976E+00  0.14406708997E+01  0.70969576135E+01  0.00000000000E+00 0.  1.
        -15    1    1    2    0    0 -0.21398758440E+02  0.20077712532E+02  0.14191560775E+03  0.14492832316E+03  0.17770000000E+01 0. -1.
         15    1    1    2    0    0  0.38043406447E+02 -0.33551944007E+02  0.35009954194E+03  0.35375963693E+03  0.17770000000E+01 0.  1.
</event>
<event>
 7    1  0.8151806E-006  0.5034633E+03  0.7546771E-02  0.9392093E-01
        -11   -1    0    0    0    0  0.00000000000E+00  0.00000000000E+00  0.50000000000E+03  0.50000000000E+03  0.00000000000E+00 0.  1.
         11   -1    0    0    0    0 -0.00000000000E+00 -0.00000000000E+00 -0.50000000000E+03  0.50000000000E+03  0.00000000000E+00 0. -1.
         23    2    1    2    0    0  0.76881262214E+02 -0.11543412873E+02  0.48933787247E+03  0.50346334813E+03  0.89329785702E+02 0.  0.
        -11    1    3    3    0    0  0.83768316731E+02 -0.37886050124E+01  0.48504264093E+03  0.49223759297E+03  0.00000000000E+00 0.  1.
         11    1    3    3    0    0 -0.68870545169E+01 -0.77548078609E+01  0.42952315467E+01  0.11225755160E+02  0.00000000000E+00 0. -1.
        -15    1    1    2    0    0 -0.29287052763E+02  0.10524317547E+02 -0.11389474233E+03  0.11808328747E+03  0.17770000000E+01 0.  1.
         15    1    1    2    0    0 -0.47594209451E+02  0.10190953260E+01 -0.37544313014E+03  0.37845336440E+03  0.17770000000E+01 0. -1.
</event>
<event>
 7    1  0.8151806E-006  0.5036352E+03  0.7546771E-02  0.9391712E-01
        -11   -1    0    0    0    0  0.00000000000E+00  0.00000000000E+00  0.50000000000E+03  0.50000000000E+03  0.00000000000E+00 0.  1.
         11   -1    0    0    0    0 -0.00000000000E+00 -0.00000000000E+00 -0.50000000000E+03  0.50000000000E+03  0.00000000000E+00 0.  1.
         23    2    1    2    0    0 -0.70309710240E+01  0.62437046672E+01 -0.49482898147E+03  0.50363516067E+03  0.93296493819E+02 0.  0.
        -11    1    3    3    0    0  0.37040851643E+02  0.28096719661E+01 -0.10638619787E+03  0.11268514562E+03  0.00000000000E+00 0.  1.
         11    1    3    3    0    0 -0.44071822667E+02  0.34340327011E+01 -0.38844278360E+03  0.39095001505E+03  0.00000000000E+00 0.  1.
        -15    1    1    2    0    0  0.10677522629E+01  0.27249408316E+01  0.34362111706E+01  0.48508425701E+01  0.17770000000E+01 0. -1.
         15    1    1    2    0    0  0.59632187611E+01 -0.89686454988E+01  0.49139277030E+03  0.49151399676E+03  0.17770000000E+01 0.  1.
</event>
<event>
 7    1  0.8151806E-006  0.5039898E+03  0.7546771E-02  0.9390926E-01
        -11   -1    0    0    0    0  0.00000000000E+00  0.00000000000E+00  0.50000000000E+03  0.50000000000E+03  0.00000000000E+00 0. -1.
         11   -1    0    0    0    0 -0.00000000000E+00 -0.00000000000E+00 -0.50000000000E+03  0.50000000000E+03  0.00000000000E+00 0.  1.
         23    2    1    2    0    0 -0.98357826714E+01  0.76736565082E+01 -0.49556325348E+03  0.50398975471E+03  0.90923632949E+02 0.  0.
        -11    1    3    3    0    0 -0.12843674028E+01 -0.39024992033E+02 -0.31001263474E+03  0.31246189096E+03  0.00000000000E+00 0.  1.
         11    1    3    3    0    0 -0.85514152686E+01  0.46698648542E+02 -0.18555061874E+03  0.19152786375E+03  0.00000000000E+00 0. -1.
        -15    1    1    2    0    0 -0.28377040814E+01  0.27898959670E+01  0.80418556305E+02  0.80536563194E+02  0.17770000000E+01 0.  1.
         15    1    1    2    0    0  0.12673486753E+02 -0.10463552475E+02  0.41514469717E+03  0.41547368210E+03  0.17770000000E+01 0. -1.
</event>
<event>
 7    1  0.8151806E-006  0.1000000E+04  0.7546771E-02  0.8684367E-01
        -11   -1    0    0    0    0  0.00000000000E+00  0.00000000000E+00  0.50000000000E+03  0.50000000000E+03  0.00000000000E+00 0.  1.
         11   -1    0    0    0    0 -0.00000000000E+00 -0.00000000000E+00 -0.50000000000E+03  0.50000000000E+03  0.00000000000E+00 0. -1.
         23    2    1    2    0    0 -0.15117480568E+03  0.13430558280E+03 -0.56654672058E+02  0.23003210342E+03  0.93878673259E+02 0.  0.
        -11    1    3    3    0    0 -0.87835320095E+02  0.10468435762E+03  0.50929286959E+01  0.13674719781E+03  0.00000000000E+00 0.  1.
         11    1    3    3    0    0 -0.63339485581E+02  0.29621225183E+02 -0.61747600754E+02  0.93284905606E+02  0.00000000000E+00 0. -1.
        -15    1    1    2    0    0 -0.17167151575E+03  0.19289876364E+03  0.15321704899E+03  0.30026598903E+03  0.17770000000E+01 0.  1.
         15    1    1    2    0    0  0.32284632143E+03 -0.32720434645E+03 -0.96562376934E+02  0.46970190756E+03  0.17770000000E+01 0. -1.
</event>
<event>
 7    1  0.8151806E-006  0.5041824E+03  0.7546771E-02  0.9390500E-01
        -11   -1    0    0    0    0  0.00000000000E+00  0.00000000000E+00  0.50000000000E+03  0.50000000000E+03  0.00000000000E+00 0. -1.
         11   -1    0    0    0    0 -0.00000000000E+00 -0.00000000000E+00 -0.50000000000E+03  0.50000000000E+03  0.00000000000E+00 0.  1.
         23    2    1    2    0    0  0.15041913771E+02  0.20734551922E+02 -0.49505053137E+03  0.50418241117E+03  0.92025509042E+02 0.  0.
        -11    1    3    3    0    0  0.51865576532E+00 -0.75996164065E+01  0.47777203206E+00  0.76322630618E+01  0.00000000000E+00 0. -1.
         11    1    3    3    0    0  0.14523258005E+02  0.28334168329E+02 -0.49552830340E+03  0.49655014811E+03  0.00000000000E+00 0.  1.
        -15    1    1    2    0    0 -0.13496664009E+02 -0.13152278536E+02  0.29274921351E+03  0.29336053264E+03  0.17770000000E+01 0. -1.
         15    1    1    2    0    0 -0.15452497618E+01 -0.75822733862E+01  0.20230131785E+03  0.20245705619E+03  0.17770000000E+01 0.  1.
</event>
<event>
 7    1  0.8151806E-006  0.5023841E+03  0.7546771E-02  0.9394491E-01
        -11   -1    0    0    0    0  0.00000000000E+00  0.00000000000E+00  0.50000000000E+03  0.50000000000E+03  0.00000000000E+00 0.  1.
         11   -1    0    0    0    0 -0.00000000000E+00 -0.00000000000E+00 -0.50000000000E+03  0.50000000000E+03  0.00000000000E+00 0.  1.
         23    2    1    2    0    0 -0.90270915626E+02 -0.28009858578E+03  0.39176819328E+03  0.49761594290E+03  0.86805837321E+02 0.  0.
        -11    1    3    3    0    0 -0.23637492612E+02 -0.20322280956E+03  0.27474260086E+03  0.34255180354E+03  0.00000000000E+00 0.  1.
         11    1    3    3    0    0 -0.66633423014E+02 -0.76875776223E+02  0.11702559242E+03  0.15506413936E+03  0.00000000000E+00 0.  1.
        -15    1    1    2    0    0  0.12849829559E+02  0.38907366225E+01  0.35056243298E+01  0.13989391770E+02  0.17770000000E+01 0. -1.
         15    1    1    2    0    0  0.77421086067E+02  0.27620784916E+03 -0.39527381761E+03  0.48839466533E+03  0.17770000000E+01 0.  1.
</event>
<event>
 7    1  0.8151806E-006  0.5038999E+03  0.7546771E-02  0.9391125E-01
        -11   -1    0    0    0    0  0.00000000000E+00  0.00000000000E+00  0.50000000000E+03  0.50000000000E+03  0.00000000000E+00 0. -1.
         11   -1    0    0    0    0 -0.00000000000E+00 -0.00000000000E+00 -0.50000000000E+03  0.50000000000E+03  0.00000000000E+00 0. -1.
         23    2    1    2    0    0  0.19180334550E+02  0.29238653337E+02  0.49378696818E+03  0.50389992674E+03  0.94163592437E+02 0.  0.
        -11    1    3    3    0    0  0.26158333000E+02  0.58131253066E+02  0.41152280024E+03  0.41643068582E+03  0.00000000000E+00 0. -1.
         11    1    3    3    0    0 -0.69779984497E+01 -0.28892599729E+02  0.82264167936E+02  0.87469240923E+02  0.00000000000E+00 0. -1.
        -15    1    1    2    0    0 -0.17961436304E+01 -0.13129865353E+02 -0.52579422613E+02  0.54252860823E+02  0.17770000000E+01 0.  1.
         15    1    1    2    0    0 -0.17384190920E+02 -0.16108787985E+02 -0.44120754557E+03  0.44184721244E+03  0.17770000000E+01 0. -1.
</event>
<event>
 7    1  0.8151806E-006  0.5195711E+03  0.7546771E-02  0.9357052E-01
        -11   -1    0    0    0    0  0.00000000000E+00  0.00000000000E+00  0.50000000000E+03  0.50000000000E+03  0.00000000000E+00 0.  1.
         11   -1    0    0    0    0 -0.00000000000E+00 -0.00000000000E+00 -0.50000000000E+03  0.50000000000E+03  0.00000000000E+00 0. -1.
         23    2    1    2    0    0  0.35978595385E+03 -0.14182752586E+03 -0.26987810603E+03  0.48042893624E+03  0.91743070506E+02 0.  0.
        -11    1    3    3    0    0  0.17087083917E+03 -0.38722040343E+02 -0.76809392598E+02  0.19130060867E+03  0.00000000000E+00 0.  1.
         11    1    3    3    0    0  0.18891511468E+03 -0.10310548552E+03 -0.19306871343E+03  0.28912832758E+03  0.00000000000E+00 0. -1.
        -15    1    1    2    0    0 -0.28675352488E+03  0.19635754758E+03  0.24453559673E+03  0.42495256950E+03  0.17770000000E+01 0.  1.
         15    1    1    2    0    0 -0.73032428968E+02 -0.54530021716E+02  0.25342509296E+02  0.94618494258E+02  0.17770000000E+01 0. -1.
</event>
<event>
 7    1  0.8151806E-006  0.5193932E+03  0.7546771E-02  0.9357432E-01
        -11   -1    0    0    0    0  0.00000000000E+00  0.00000000000E+00  0.50000000000E+03  0.50000000000E+03  0.00000000000E+00 0.  1.
         11   -1    0    0    0    0 -0.00000000000E+00 -0.00000000000E+00 -0.50000000000E+03  0.50000000000E+03  0.00000000000E+00 0. -1.
         23    2    1    2    0    0  0.34262619804E+02 -0.80120111692E+02  0.46390874803E+03  0.48060682038E+03  0.90434671939E+02 0.  0.
        -11    1    3    3    0    0  0.52941863417E+02 -0.86538701970E+02  0.32977194974E+03  0.34502366103E+03  0.00000000000E+00 0.  1.
         11    1    3    3    0    0 -0.18679243613E+02  0.64185902778E+01  0.13413679829E+03  0.13558315935E+03  0.00000000000E+00 0. -1.
        -15    1    1    2    0    0 -0.75014637051E+02 -0.22299859648E+02 -0.35821492101E+03  0.36666819725E+03  0.17770000000E+01 0.  1.
         15    1    1    2    0    0  0.40752017247E+02  0.10241997134E+03 -0.10569382702E+03  0.15272498236E+03  0.17770000000E+01 0. -1.
</event>
<event>
 7    1  0.8151806E-006  0.5026668E+03  0.7546771E-02  0.9393862E-01
        -11   -1    0    0    0    0  0.00000000000E+00  0.00000000000E+00  0.50000000000E+03  0.50000000000E+03  0.00000000000E+00 0.  1.
         11   -1    0    0    0    0 -0.00000000000E+00 -0.00000000000E+00 -0.50000000000E+03  0.50000000000E+03  0.00000000000E+00 0. -1.
         23    2    1    2    0    0 -0.41649229544E+01  0.41764433124E+01 -0.49425259304E+03  0.50266684155E+03  0.91397694705E+02 0.  0.
        -11    1    3    3    0    0  0.29540233819E+02  0.27833893162E+02 -0.35892944342E+03  0.36121696580E+03  0.00000000000E+00 0. -1.
         11    1    3    3    0    0 -0.33705156773E+02 -0.23657449850E+02 -0.13532314962E+03  0.14144987575E+03  0.00000000000E+00 0.  1.
        -15    1    1    2    0    0  0.38786371458E+01 -0.17095218114E+02  0.46465432657E+03  0.46498827000E+03  0.17770000000E+01 0.  1.
         15    1    1    2    0    0  0.28628580863E+00  0.12918774802E+02  0.29598266471E+02  0.32344888453E+02  0.17770000000E+01 0. -1.
</event>
<event>
 7    1  0.8151806E-006  0.5205137E+03  0.7546771E-02  0.9355043E-01
        -11   -1    0    0    0    0  0.00000000000E+00  0.00000000000E+00  0.50000000000E+03  0.50000000000E+03  0.00000000000E+00 0.  1.
         11   -1    0    0    0    0 -0.00000000000E+00 -0.00000000000E+00 -0.50000000000E+03  0.50000000000E+03  0.00000000000E+00 0. -1.
         23    2    1    2    0    0  0.16109957209E+02 -0.65011585677E+02 -0.46514738242E+03  0.47948627255E+03  0.95178575312E+02 0.  0.
        -11    1    3    3    0    0  0.14901475902E+01  0.22207577484E+02 -0.16769798408E+03  0.16916858722E+03  0.00000000000E+00 0.  1.
         11    1    3    3    0    0  0.14619809619E+02 -0.87219163161E+02 -0.29744939834E+03  0.31031768533E+03  0.00000000000E+00 0. -1.
        -15    1    1    2    0    0  0.32210545012E+02  0.13601096445E+03  0.21900875561E+03  0.25981627051E+03  0.17770000000E+01 0.  1.
         15    1    1    2    0    0 -0.48320502221E+02 -0.70999378773E+02  0.24613862681E+03  0.26069745694E+03  0.17770000000E+01 0. -1.
</event>
<event>
 7    1  0.8151806E-006  0.5080288E+03  0.7546771E-02  0.9382022E-01
        -11   -1    0    0    0    0  0.00000000000E+00  0.00000000000E+00  0.50000000000E+03  0.50000000000E+03  0.00000000000E+00 0. -1.
         11   -1    0    0    0    0 -0.00000000000E+00 -0.00000000000E+00 -0.50000000000E+03  0.50000000000E+03  0.00000000000E+00 0.  1.
         23    2    1    2    0    0  0.27580640662E+03 -0.50871653755E+01  0.39715560782E+03  0.49197121792E+03  0.90598284997E+02 0.  0.
        -11    1    3    3    0    0  0.60453416939E+02 -0.38521344368E+02  0.83709850140E+02  0.11020820569E+03  0.00000000000E+00 0.  1.
         11    1    3    3    0    0  0.21535298969E+03  0.33434178992E+02  0.31344575768E+03  0.38176301222E+03  0.00000000000E+00 0. -1.
        -15    1    1    2    0    0  0.14278932644E+02 -0.17177103935E+02 -0.51905888681E+02  0.56536004685E+02  0.17770000000E+01 0. -1.
         15    1    1    2    0    0 -0.29008533927E+03  0.22264269310E+02 -0.34524971914E+03  0.45149277740E+03  0.17770000000E+01 0.  1.
</event>
<event>
 7    1  0.8151806E-006  0.5038746E+03  0.7546771E-02  0.9391182E-01
        -11   -1    0    0    0    0  0.00000000000E+00  0.00000000000E+00  0.50000000000E+03  0.50000000000E+03  0.00000000000E+00 0.  1.
         11   -1    0    0    0    0 -0.00000000000E+00 -0.00000000000E+00 -0.50000000000E+03  0.50000000000E+03  0.00000000000E+00 0. -1.
         23    2    1    2    0    0 -0.42868447784E+02 -0.73112894999E+02 -0.48824071074E+03  0.50387459203E+03  0.91254663659E+02 0.  0.
        -11    1    3    3    0    0 -0.55068515999E+02 -0.46395427527E+02 -0.44964446336E+03  0.45537371529E+03  0.00000000000E+00 0. -1.
         11    1    3    3    0    0  0.12200068215E+02 -0.26717467472E+02 -0.38596247386E+02  0.48500876744E+02  0.00000000000E+00 0.  1.
        -15    1    1    2    0    0  0.85622268381E+01  0.95672456744E+01  0.38573635376E+02  0.40693082869E+02  0.17770000000E+01 0. -1.
         15    1    1    2    0    0  0.34306220946E+02  0.63545649325E+02  0.44966707537E+03  0.45543232510E+03  0.17770000000E+01 0.  1.
</event>
<event>
 7    1  0.8151806E-006  0.5032749E+03  0.7546771E-02  0.9392512E-01
        -11   -1    0    0    0    0  0.00000000000E+00  0.00000000000E+00  0.50000000000E+03  0.50000000000E+03  0.00000000000E+00 0.  1.
         11   -1    0    0    0    0 -0.00000000000E+00 -0.00000000000E+00 -0.50000000000E+03  0.50000000000E+03  0.00000000000E+00 0. -1.
         23    2    1    2    0    0  0.55719674611E+01  0.21598079709E+01 -0.49528232714E+03  0.50327488712E+03  0.89136506794E+02 0.  0.
        -11    1    3    3    0    0  0.28751805750E+02 -0.21263105256E+02 -0.41435764356E+03  0.41589787539E+03  0.00000000000E+00 0. -1.
         11    1    3    3    0    0 -0.23179838289E+02  0.23422913227E+02 -0.80924683578E+02  0.87377011733E+02  0.00000000000E+00 0.  1.
        -15    1    1    2    0    0  0.10756771694E+02  0.98206705077E+01  0.12021780070E+03  0.12110999562E+03  0.17770000000E+01 0. -1.
         15    1    1    2    0    0 -0.16328739155E+02 -0.11980478479E+02  0.37506452644E+03  0.37561511725E+03  0.17770000000E+01 0.  1.
</event>
<event>
 7    1  0.8151806E-006  0.5331007E+03  0.7546771E-02  0.9328646E-01
        -11   -1    0    0    0    0  0.00000000000E+00  0.00000000000E+00  0.50000000000E+03  0.50000000000E+03  0.00000000000E+00 0. -1.
         11   -1    0    0    0    0 -0.00000000000E+00 -0.00000000000E+00 -0.50000000000E+03  0.50000000000E+03  0.00000000000E+00 0.  1.
         23    2    1    2    0    0 -0.13387380156E+03 -0.24132345471E+03 -0.36501405460E+03  0.46689934918E+03  0.92739083878E+02 0.  0.
        -11    1    3    3    0    0 -0.28559250952E+02 -0.35308298037E+02 -0.15981388524E+02  0.48142616302E+02  0.00000000000E+00 0. -1.
         11    1    3    3    0    0 -0.10531455060E+03 -0.20601515667E+03 -0.34903266607E+03  0.41875673288E+03  0.00000000000E+00 0.  1.
        -15    1    1    2    0    0  0.94728720359E+02 -0.32322572046E+02  0.43679508753E+02  0.10922150126E+03  0.17770000000E+01 0.  1.
         15    1    1    2    0    0  0.39145081196E+02  0.27364602676E+03  0.32133454584E+03  0.42387914955E+03  0.17770000000E+01 0. -1.
</event>
<event>
 7    1  0.8151806E-006  0.1000000E+04  0.7546771E-02  0.8684367E-01
        -11   -1    0    0    0    0  0.00000000000E+00  0.00000000000E+00  0.50000000000E+03  0.50000000000E+03  0.00000000000E+00 0.  1.
         11   -1    0    0    0    0 -0.00000000000E+00 -0.00000000000E+00 -0.50000000000E+03  0.50000000000E+03  0.00000000000E+00 0. -1.
         23    2    1    2    0    0 -0.54232081594E+02  0.19004021122E+03 -0.14655293550E+03  0.26188665198E+03  0.89724327938E+02 0.  0.
        -11    1    3    3    0    0 -0.51565921890E+02  0.60828873327E+02 -0.22770155434E+02  0.82931755733E+02  0.00000000000E+00 0.  1.
         11    1    3    3    0    0 -0.26661597040E+01  0.12921133790E+03 -0.12378278006E+03  0.17895489624E+03  0.00000000000E+00 0. -1.
        -15    1    1    2    0    0  0.11813077731E+03 -0.41779829531E+03  0.22483074236E+03  0.48893999279E+03  0.17770000000E+01 0.  1.
         15    1    1    2    0    0 -0.63898695721E+02  0.22775808409E+03 -0.78277806862E+02  0.24917335523E+03  0.17770000000E+01 0. -1.
</event>
<event>
 7    1  0.8151806E-006  0.5589807E+03  0.7546771E-02  0.9276720E-01
        -11   -1    0    0    0    0  0.00000000000E+00  0.00000000000E+00  0.50000000000E+03  0.50000000000E+03  0.00000000000E+00 0.  1.
         11   -1    0    0    0    0 -0.00000000000E+00 -0.00000000000E+00 -0.50000000000E+03  0.50000000000E+03  0.00000000000E+00 0. -1.
         23    2    1    2    0    0 -0.16106789512E+03 -0.10893557957E+03 -0.38533471500E+03  0.44101932477E+03  0.90583524447E+02 0.  0.
        -11    1    3    3    0    0 -0.10741292923E+03 -0.20251693775E+02 -0.17121988313E+03  0.20313521813E+03  0.00000000000E+00 0.  1.
         11    1    3    3    0    0 -0.53654965888E+02 -0.88683885790E+02 -0.21411483187E+03  0.23788410663E+03  0.00000000000E+00 0. -1.
        -15    1    1    2    0    0  0.41122890851E+02  0.69860688034E+02  0.42031053472E+03  0.42806040602E+03  0.17770000000E+01 0.  1.
         15    1    1    2    0    0  0.11994500426E+03  0.39074891532E+02 -0.34975819716E+02  0.13092026921E+03  0.17770000000E+01 0. -1.
</event>
<event>
 7    1  0.8151806E-006  0.5862189E+03  0.7546771E-02  0.9225193E-01
        -11   -1    0    0    0    0  0.00000000000E+00  0.00000000000E+00  0.50000000000E+03  0.50000000000E+03  0.00000000000E+00 0.  1.
         11   -1    0    0    0    0 -0.00000000000E+00 -0.00000000000E+00 -0.50000000000E+03  0.50000000000E+03  0.00000000000E+00 0. -1.
         23    2    1    2    0    0 -0.22229094852E+02 -0.16470876852E+03 -0.36764619175E+03  0.41378106784E+03  0.91803805500E+02 0.  0.
        -11    1    3    3    0    0 -0.71242846862E+01 -0.43979235077E+01 -0.10755593431E+03  0.10788130593E+03  0.00000000000E+00 0.  1.
         11    1    3    3    0    0 -0.15104810166E+02 -0.16031084502E+03 -0.26009025744E+03  0.30589976191E+03  0.00000000000E+00 0. -1.
        -15    1    1    2    0    0 -0.10982329627E+03  0.26539028407E+03  0.26625453282E+03  0.39164753703E+03  0.17770000000E+01 0.  1.
         15    1    1    2    0    0  0.13205239112E+03 -0.10068151555E+03  0.10139165893E+03  0.19457139513E+03  0.17770000000E+01 0. -1.
</event>
<event>
 7    1  0.8151806E-006  0.5040803E+03  0.7546771E-02  0.9390726E-01
        -11   -1    0    0    0    0  0.00000000000E+00  0.00000000000E+00  0.50000000000E+03  0.50000000000E+03  0.00000000000E+00 0. -1.
         11   -1    0    0    0    0 -0.00000000000E+00 -0.00000000000E+00 -0.50000000000E+03  0.50000000000E+03  0.00000000000E+00 0.  1.
         23    2    1    2    0    0 -0.14891016883E+02 -0.15611426744E+02 -0.49531633511E+03  0.50408031673E+03  0.91067199704E+02 0.  0.
        -11    1    3    3    0    0  0.30222568344E+02  0.93720367039E+01 -0.88069988025E+02  0.93581843858E+02  0.00000000000E+00 0. -1.
         11    1    3    3    0    0 -0.45113585227E+02 -0.24983463448E+02 -0.40724634708E+03  0.41049847287E+03  0.00000000000E+00 0.  1.
        -15    1    1    2    0    0  0.55075495400E+01  0.67948241206E+00  0.73277030136E+02  0.73508337437E+02  0.17770000000E+01 0.  1.
         15    1    1    2    0    0  0.93834673431E+01  0.14931944332E+02  0.42203930497E+03  0.42241134583E+03  0.17770000000E+01 0. -1.
</event>
<event>
 7    1  0.8151806E-006  0.1000000E+04  0.7546771E-02  0.8684367E-01
        -11   -1    0    0    0    0  0.00000000000E+00  0.00000000000E+00  0.50000000000E+03  0.50000000000E+03  0.00000000000E+00 0.  1.
         11   -1    0    0    0    0 -0.00000000000E+00 -0.00000000000E+00 -0.50000000000E+03  0.50000000000E+03  0.00000000000E+00 0. -1.
         23    2    1    2    0    0 -0.15106074877E+02 -0.10027878122E+03 -0.30449977569E+03  0.33316189895E+03  0.89401957770E+02 0.  0.
        -11    1    3    3    0    0  0.71606803132E+01 -0.70853075294E+02 -0.86416705547E+02  0.11197892935E+03  0.00000000000E+00 0.  1.
         11    1    3    3    0    0 -0.22266755190E+02 -0.29425705929E+02 -0.21808307015E+03  0.22118296960E+03  0.00000000000E+00 0. -1.
        -15    1    1    2    0    0  0.62746214158E+02  0.13429183672E+03  0.46918723860E+03  0.49204797266E+03  0.17770000000E+01 0.  1.
         15    1    1    2    0    0 -0.47640139281E+02 -0.34013055493E+02 -0.16468746291E+03  0.17479012839E+03  0.17770000000E+01 0. -1.
</event>
<event>
 7    1  0.8151806E-006  0.9038722E+03  0.7546771E-02  0.8781713E-01
        -11   -1    0    0    0    0  0.00000000000E+00  0.00000000000E+00  0.50000000000E+03  0.50000000000E+03  0.00000000000E+00 0.  1.
         11   -1    0    0    0    0 -0.00000000000E+00 -0.00000000000E+00 -0.50000000000E+03  0.50000000000E+03  0.00000000000E+00 0. -1.
         23    2    1    2    0    0 -0.15430556938E+02  0.40413681553E+01 -0.27206538866E+02  0.96127781922E+02  0.90807047944E+02 0.  0.
        -11    1    3    3    0    0  0.12005805414E+02 -0.28423678632E+02  0.16643367632E+02  0.35057760292E+02  0.00000000000E+00 0.  1.
         11    1    3    3    0    0 -0.27436362352E+02  0.32465046787E+02 -0.43849906498E+02  0.61070021630E+02  0.00000000000E+00 0. -1.
        -15    1    1    2    0    0  0.19643293201E+03 -0.41228926617E+03  0.45125562742E+01  0.45671857492E+03  0.17770000000E+01 0.  1.
         15    1    1    2    0    0 -0.18100237507E+03  0.40824789802E+03  0.22693982592E+02  0.44715364316E+03  0.17770000000E+01 0. -1.
</event>
<event>
 7    1  0.8151806E-006  0.5029113E+03  0.7546771E-02  0.9393319E-01
        -11   -1    0    0    0    0  0.00000000000E+00  0.00000000000E+00  0.50000000000E+03  0.50000000000E+03  0.00000000000E+00 0.  1.
         11   -1    0    0    0    0 -0.00000000000E+00 -0.00000000000E+00 -0.50000000000E+03  0.50000000000E+03  0.00000000000E+00 0. -1.
         23    2    1    2    0    0 -0.52231618969E+02  0.14130612350E+02 -0.48593735455E+03  0.49708867103E+03  0.89633799993E+02 0.  0.
        -11    1    3    3    0    0 -0.75117623034E+02  0.52617167719E+01 -0.28987632082E+03  0.29949728601E+03  0.00000000000E+00 0.  1.
         11    1    3    3    0    0  0.22886004066E+02  0.88688955784E+01 -0.19606103372E+03  0.19759138502E+03  0.00000000000E+00 0. -1.
        -15    1    1    2    0    0  0.47877515599E+02 -0.63489241901E+02  0.31900269160E+03  0.32876893909E+03  0.17770000000E+01 0.  1.
         15    1    1    2    0    0  0.43541033692E+01  0.49358629551E+02  0.16693466295E+03  0.17414238987E+03  0.17770000000E+01 0. -1.
</event>
<event>
 6    1  0.8151806E-006  0.3962048E+03  0.7546771E-02  0.9667681E-01
        -11   -1    0    0    0    0  0.00000000000E+00  0.00000000000E+00  0.50000000000E+03  0.50000000000E+03  0.00000000000E+00 0.  1.
         11   -1    0    0    0    0 -0.00000000000E+00 -0.00000000000E+00 -0.50000000000E+03  0.50000000000E+03  0.00000000000E+00 0. -1.
        -11    1    1    2    0    0 -0.56104158306E+01 -0.20027441702E+03 -0.53767616343E+01  0.20042511930E+03  0.00000000000E+00 0.  1.
         11    1    1    2    0    0 -0.28469649429E+03  0.32532197573E+02 -0.23462930558E+03  0.37035300563E+03  0.00000000000E+00 0. -1.
        -15    1    1    2    0    0  0.28003227528E+03  0.17955138831E+03  0.24449494143E+03  0.41284102310E+03  0.17770000000E+01 0.  1.
         15    1    1    2    0    0  0.10274634845E+02 -0.11809168862E+02 -0.44888742160E+01  0.16380851966E+02  0.17770000000E+01 0. -1.
</event>
<event>
 7    1  0.8151806E-006  0.5033075E+03  0.7546771E-02  0.9392439E-01
        -11   -1    0    0    0    0  0.00000000000E+00  0.00000000000E+00  0.50000000000E+03  0.50000000000E+03  0.00000000000E+00 0. -1.
         11   -1    0    0    0    0 -0.00000000000E+00 -0.00000000000E+00 -0.50000000000E+03  0.50000000000E+03  0.00000000000E+00 0. -1.
         23    2    1    2    0    0  0.57828078138E+02 -0.78828404501E+01  0.49166105161E+03  0.50330750099E+03  0.90452336025E+02 0.  0.
        -11    1    3    3    0    0  0.46223967227E+02  0.66452056050E+01  0.47789832968E+03  0.48017458014E+03  0.00000000000E+00 0. -1.
         11    1    3    3    0    0  0.11604110911E+02 -0.14528046055E+02  0.13762721928E+02  0.23132920851E+02  0.00000000000E+00 0. -1.
        -15    1    1    2    0    0 -0.62913931224E+02  0.11136555071E+02 -0.43246262786E+03  0.43716046004E+03  0.17770000000E+01 0. -1.
         15    1    1    2    0    0  0.50858530862E+01 -0.32537146210E+01 -0.59198423747E+02  0.59532038967E+02  0.17770000000E+01 0.  1.
</event>
<event>
 7    1  0.8151806E-006  0.5037872E+03  0.7546771E-02  0.9391375E-01
        -11   -1    0    0    0    0  0.00000000000E+00  0.00000000000E+00  0.50000000000E+03  0.50000000000E+03  0.00000000000E+00 0.  1.
         11   -1    0    0    0    0 -0.00000000000E+00 -0.00000000000E+00 -0.50000000000E+03  0.50000000000E+03  0.00000000000E+00 0. -1.
         23    2    1    2    0    0 -0.89392428677E+01 -0.79519260549E+01 -0.49586949208E+03  0.50378715492E+03  0.88157819208E+02 0.  0.
        -11    1    3    3    0    0  0.20737399054E+02  0.11580852796E+02 -0.39891979790E+02  0.46427641794E+02  0.00000000000E+00 0.  1.
         11    1    3    3    0    0 -0.29676641921E+02 -0.19532778851E+02 -0.45597751229E+03  0.45735951312E+03  0.00000000000E+00 0. -1.
        -15    1    1    2    0    0  0.81769153941E+01 -0.15964692617E+01  0.26759733612E+03  0.26773289430E+03  0.17770000000E+01 0. -1.
         15    1    1    2    0    0  0.76232747361E+00  0.95483953166E+01  0.22827215596E+03  0.22847995079E+03  0.17770000000E+01 0.  1.
</event>
<event>
 7    1  0.8151806E-006  0.5020426E+03  0.7546771E-02  0.9395251E-01
        -11   -1    0    0    0    0  0.00000000000E+00  0.00000000000E+00  0.50000000000E+03  0.50000000000E+03  0.00000000000E+00 0.  1.
         11   -1    0    0    0    0 -0.00000000000E+00 -0.00000000000E+00 -0.50000000000E+03  0.50000000000E+03  0.00000000000E+00 0. -1.
         23    2    1    2    0    0 -0.39660354246E+02 -0.15883462585E+03  0.46519384283E+03  0.50204256575E+03  0.94021510053E+02 0.  0.
        -11    1    3    3    0    0  0.72936511759E+01 -0.93319253046E+02  0.15086951478E+03  0.17754799583E+03  0.00000000000E+00 0. -1.
         11    1    3    3    0    0 -0.46954005422E+02 -0.65515372801E+02  0.31432432805E+03  0.32449456991E+03  0.00000000000E+00 0.  1.
        -15    1    1    2    0    0  0.36551831065E+02  0.16306290818E+03 -0.41390021810E+03  0.44636542949E+03  0.17770000000E+01 0. -1.
         15    1    1    2    0    0  0.31085231814E+01 -0.42282823371E+01 -0.51293624731E+02  0.51592004758E+02  0.17770000000E+01 0.  1.
</event>
<event>
 7    1  0.8151806E-006  0.5037509E+03  0.7546771E-02  0.9391456E-01
        -11   -1    0    0    0    0  0.00000000000E+00  0.00000000000E+00  0.50000000000E+03  0.50000000000E+03  0.00000000000E+00 0.  1.
         11   -1    0    0    0    0 -0.00000000000E+00 -0.00000000000E+00 -0.50000000000E+03  0.50000000000E+03  0.00000000000E+00 0. -1.
         23    2    1    2    0    0 -0.52026115035E+01  0.70941019651E+01 -0.49542498371E+03  0.50375087316E+03  0.90783447170E+02 0.  0.
        -11    1    3    3    0    0  0.22321919482E+02  0.34891374829E+02 -0.13505896392E+03  0.14126783024E+03  0.00000000000E+00 0.  1.
         11    1    3    3    0    0 -0.27524530986E+02 -0.27797272864E+02 -0.36036601979E+03  0.36248304292E+03  0.00000000000E+00 0. -1.
        -15    1    1    2    0    0  0.99278916463E+00 -0.12607867832E+02  0.10719316697E+03  0.10795127019E+03  0.17770000000E+01 0. -1.
         15    1    1    2    0    0  0.42098223389E+01  0.55137658666E+01  0.38823181674E+03  0.38829785665E+03  0.17770000000E+01 0.  1.
</event>
<event>
 7    1  0.8151806E-006  0.5036964E+03  0.7546771E-02  0.9391576E-01
        -11   -1    0    0    0    0  0.00000000000E+00  0.00000000000E+00  0.50000000000E+03  0.50000000000E+03  0.00000000000E+00 0. -1.
         11   -1    0    0    0    0 -0.00000000000E+00 -0.00000000000E+00 -0.50000000000E+03  0.50000000000E+03  0.00000000000E+00 0. -1.
         23    2    1    2    0    0  0.16047991375E+02 -0.76774466210E+00 -0.49475242989E+03  0.50369641754E+03  0.93123502395E+02 0.  0.
        -11    1    3    3    0    0 -0.63845767015E+01  0.28237380574E+02 -0.52719897971E+02  0.60145657561E+02  0.00000000000E+00 0. -1.
         11    1    3    3    0    0  0.22432568076E+02 -0.29005125237E+02 -0.44203253192E+03  0.44355075997E+03  0.00000000000E+00 0. -1.
        -15    1    1    2    0    0 -0.26538768137E+02  0.14010499783E+01  0.27331263278E+03  0.27460739633E+03  0.17770000000E+01 0.  1.
         15    1    1    2    0    0  0.10490776762E+02 -0.63330531625E+00  0.22143979711E+03  0.22169618613E+03  0.17770000000E+01 0. -1.
</event>
<event>
 7    1  0.8151806E-006  0.5033897E+03  0.7546771E-02  0.9392257E-01
        -11   -1    0    0    0    0  0.00000000000E+00  0.00000000000E+00  0.50000000000E+03  0.50000000000E+03  0.00000000000E+00 0. -1.
         11   -1    0    0    0    0 -0.00000000000E+00 -0.00000000000E+00 -0.50000000000E+03  0.50000000000E+03  0.00000000000E+00 0.  1.
         23    2    1    2    0    0 -0.23871650197E+02 -0.48416646472E+01 -0.49448939321E+03  0.50338968636E+03  0.91039106680E+02 0.  0.
        -11    1    3    3    0    0 -0.30074739966E+02  0.99579655778E+00 -0.49393824947E+03  0.49485399451E+03  0.00000000000E+00 0.  1.
         11    1    3    3    0    0  0.62030897689E+01 -0.58374612050E+01 -0.55114373702E+00  0.85356918536E+01  0.00000000000E+00 0. -1.
        -15    1    1    2    0    0  0.27641580815E+02 -0.10409782087E+02  0.35382634630E+03  0.35506148992E+03  0.17770000000E+01 0. -1.
         15    1    1    2    0    0 -0.37699306173E+01  0.15251446734E+02  0.14066304690E+03  0.14154882372E+03  0.17770000000E+01 0.  1.
</event>
<event>
 6    1  0.8151806E-006  0.4021856E+03  0.7546771E-02  0.9649965E-01
        -11   -1    0    0    0    0  0.00000000000E+00  0.00000000000E+00  0.50000000000E+03  0.50000000000E+03  0.00000000000E+00 0.  1.
         11   -1    0    0    0    0 -0.00000000000E+00 -0.00000000000E+00 -0.50000000000E+03  0.50000000000E+03  0.00000000000E+00 0. -1.
        -11    1    1    2    0    0  0.13369990560E+03 -0.98878065269E+02  0.74998158195E+02  0.18242055883E+03  0.00000000000E+00 0.  1.
         11    1    1    2    0    0  0.31660831104E+02 -0.29643318288E+03 -0.20669245387E+03  0.36276274703E+03  0.00000000000E+00 0. -1.
        -15    1    1    2    0    0 -0.51737810273E+02  0.95586986970E+02  0.67352695369E+02  0.12787969500E+03  0.17770000000E+01 0. -1.
         15    1    1    2    0    0 -0.11362292643E+03  0.29972426118E+03  0.64341600310E+02  0.32693699915E+03  0.17770000000E+01 0.  1.
</event>
<event>
 7    1  0.8151806E-006  0.5038628E+03  0.7546771E-02  0.9391208E-01
        -11   -1    0    0    0    0  0.00000000000E+00  0.00000000000E+00  0.50000000000E+03  0.50000000000E+03  0.00000000000E+00 0. -1.
         11   -1    0    0    0    0 -0.00000000000E+00 -0.00000000000E+00 -0.50000000000E+03  0.50000000000E+03  0.00000000000E+00 0.  1.
         23    2    1    2    0    0  0.16883786185E+01  0.21603647408E+01 -0.49559617537E+03  0.50386276856E+03  0.90854844132E+02 0.  0.
        -11    1    3    3    0    0  0.20030126659E+02  0.40799113751E+02 -0.19425382626E+03  0.19950018213E+03  0.00000000000E+00 0. -1.
         11    1    3    3    0    0 -0.18341748041E+02 -0.38638749010E+02 -0.30134234911E+03  0.30436258643E+03  0.00000000000E+00 0.  1.
        -15    1    1    2    0    0  0.86322964873E+00  0.10055574766E+02  0.18261277055E+03  0.18290008596E+03  0.17770000000E+01 0.  1.
         15    1    1    2    0    0 -0.25516082672E+01 -0.12215939507E+02  0.31298340482E+03  0.31323714548E+03  0.17770000000E+01 0. -1.
</event>
<event>
 7    1  0.8151806E-006  0.5033309E+03  0.7546771E-02  0.9392387E-01
        -11   -1    0    0    0    0  0.00000000000E+00  0.00000000000E+00  0.50000000000E+03  0.50000000000E+03  0.00000000000E+00 0.  1.
         11   -1    0    0    0    0 -0.00000000000E+00 -0.00000000000E+00 -0.50000000000E+03  0.50000000000E+03  0.00000000000E+00 0. -1.
         23    2    1    2    0    0 -0.23468422967E+02  0.29661612217E+02 -0.49421710047E+03  0.50333089968E+03  0.87526419224E+02 0.  0.
        -11    1    3    3    0    0 -0.19252479887E+02  0.48134851154E+02 -0.46864519102E+03  0.47150390979E+03  0.00000000000E+00 0. -1.
         11    1    3    3    0    0 -0.42159430796E+01 -0.18473238938E+02 -0.25571909447E+02  0.31826989893E+02  0.00000000000E+00 0.  1.
        -15    1    1    2    0    0 -0.11456658151E+01 -0.55554785211E+00  0.19628387034E+01  0.29379667036E+01  0.17770000000E+01 0. -1.
         15    1    1    2    0    0  0.24614088782E+02 -0.29106064365E+02  0.49225426176E+03  0.49373113362E+03  0.17770000000E+01 0.  1.
</event>
<event>
 7    1  0.8151806E-006  0.5041596E+03  0.7546771E-02  0.9390550E-01
        -11   -1    0    0    0    0  0.00000000000E+00  0.00000000000E+00  0.50000000000E+03  0.50000000000E+03  0.00000000000E+00 0.  1.
         11   -1    0    0    0    0 -0.00000000000E+00 -0.00000000000E+00 -0.50000000000E+03  0.50000000000E+03  0.00000000000E+00 0. -1.
         23    2    1    2    0    0  0.27640848652E+01  0.23448146605E+02 -0.49523260494E+03  0.50415964191E+03  0.91455758637E+02 0.  0.
        -11    1    3    3    0    0  0.44723076164E+02  0.88018247580E+01 -0.17416123727E+03  0.18002711526E+03  0.00000000000E+00 0.  1.
         11    1    3    3    0    0 -0.41958991299E+02  0.14646321847E+02 -0.32107136767E+03  0.32413252665E+03  0.00000000000E+00 0. -1.
        -15    1    1    2    0    0 -0.58242738102E+00 -0.29856929746E+01  0.46854863874E+02  0.46987121447E+02  0.17770000000E+01 0.  1.
         15    1    1    2    0    0 -0.21816574841E+01 -0.20462453630E+02  0.44837774106E+03  0.44885323665E+03  0.17770000000E+01 0.  1.
</event>
<event>
 7    1  0.8151806E-006  0.5021280E+03  0.7546771E-02  0.9395061E-01
        -11   -1    0    0    0    0  0.00000000000E+00  0.00000000000E+00  0.50000000000E+03  0.50000000000E+03  0.00000000000E+00 0. -1.
         11   -1    0    0    0    0 -0.00000000000E+00 -0.00000000000E+00 -0.50000000000E+03  0.50000000000E+03  0.00000000000E+00 0.  1.
         23    2    1    2    0    0 -0.47318529880E+02  0.31403169564E+03  0.37227997258E+03  0.49787202447E+03  0.91810814327E+02 0.  0.
        -11    1    3    3    0    0 -0.46282035240E+02  0.12225109437E+03  0.98838038218E+02  0.16387896345E+03  0.00000000000E+00 0.  1.
         11    1    3    3    0    0 -0.10364946394E+01  0.19178060127E+03  0.27344193436E+03  0.33399306102E+03  0.00000000000E+00 0. -1.
        -15    1    1    2    0    0  0.48684689989E+02 -0.18730101729E+03 -0.14475468746E+03  0.24167943104E+03  0.17770000000E+01 0. -1.
         15    1    1    2    0    0 -0.13661601090E+01 -0.12673067835E+03 -0.22752528512E+03  0.26044854449E+03  0.17770000000E+01 0.  1.
</event>
<event>
 7    1  0.8151806E-006  0.5334113E+03  0.7546771E-02  0.9328004E-01
        -11   -1    0    0    0    0  0.00000000000E+00  0.00000000000E+00  0.50000000000E+03  0.50000000000E+03  0.00000000000E+00 0.  1.
         11   -1    0    0    0    0 -0.00000000000E+00 -0.00000000000E+00 -0.50000000000E+03  0.50000000000E+03  0.00000000000E+00 0. -1.
         23    2    1    2    0    0  0.13589185019E+03  0.24942834906E+02 -0.43613770897E+03  0.46658869928E+03  0.91652458460E+02 0.  0.
        -11    1    3    3    0    0  0.12176339903E+03  0.40266971552E+01 -0.41830168219E+03  0.43568203653E+03  0.00000000000E+00 0. -1.
         11    1    3    3    0    0  0.14128451164E+02  0.20916137751E+02 -0.17836026788E+02  0.30906662749E+02  0.00000000000E+00 0.  1.
        -15    1    1    2    0    0 -0.31774420548E+02  0.12225412463E+03  0.19426673341E+03  0.23172916569E+03  0.17770000000E+01 0.  1.
         15    1    1    2    0    0 -0.10411742965E+03 -0.14719695953E+03  0.24187097556E+03  0.30168213503E+03  0.17770000000E+01 0. -1.
</event>
<event>
 7    1  0.8151806E-006  0.5061760E+03  0.7546771E-02  0.9386096E-01
        -11   -1    0    0    0    0  0.00000000000E+00  0.00000000000E+00  0.50000000000E+03  0.50000000000E+03  0.00000000000E+00 0.  1.
         11   -1    0    0    0    0 -0.00000000000E+00 -0.00000000000E+00 -0.50000000000E+03  0.50000000000E+03  0.00000000000E+00 0. -1.
         23    2    1    2    0    0  0.80112688741E+02  0.11444358983E+03 -0.46650938236E+03  0.49382401322E+03  0.81949826426E+02 0.  0.
        -11    1    3    3    0    0 -0.99319594671E+01 -0.47349664378E+01 -0.53850478732E+02  0.54963058372E+02  0.00000000000E+00 0.  1.
         11    1    3    3    0    0  0.90044648208E+02  0.11917855627E+03 -0.41265890363E+03  0.43886095485E+03  0.00000000000E+00 0. -1.
        -15    1    1    2    0    0 -0.74236296165E+02 -0.46100387019E+02  0.40402453320E+03  0.41337060189E+03  0.17770000000E+01 0.  1.
         15    1    1    2    0    0 -0.58763925757E+01 -0.68343202812E+02  0.62484849162E+02  0.92805384887E+02  0.17770000000E+01 0. -1.
</event>
<event>
 7    1  0.8151806E-006  0.6489583E+03  0.7546771E-02  0.9117008E-01
        -11   -1    0    0    0    0  0.00000000000E+00  0.00000000000E+00  0.50000000000E+03  0.50000000000E+03  0.00000000000E+00 0. -1.
         11   -1    0    0    0    0 -0.00000000000E+00 -0.00000000000E+00 -0.50000000000E+03  0.50000000000E+03  0.00000000000E+00 0.  1.
         23    2    1    2    0    0 -0.55418445379E+02 -0.50357627609E+02 -0.33212793732E+03  0.35104168611E+03  0.85523119068E+02 0.  0.
        -11    1    3    3    0    0 -0.45596677948E+02 -0.50042471866E+02 -0.33420892586E+03  0.34099693863E+03  0.00000000000E+00 0.  1.
         11    1    3    3    0    0 -0.98217674311E+01 -0.31515574378E+00  0.20809885452E+01  0.10044747480E+02  0.00000000000E+00 0. -1.
        -15    1    1    2    0    0 -0.12715140409E+03 -0.19721170778E+03  0.21967786421E+03  0.32143655517E+03  0.17770000000E+01 0.  1.
         15    1    1    2    0    0  0.18256984947E+03  0.24756933539E+03  0.11245007311E+03  0.32752175872E+03  0.17770000000E+01 0. -1.
</event>
<event>
 7    1  0.8151806E-006  0.5279055E+03  0.7546771E-02  0.9339447E-01
        -11   -1    0    0    0    0  0.00000000000E+00  0.00000000000E+00  0.50000000000E+03  0.50000000000E+03  0.00000000000E+00 0.  1.
         11   -1    0    0    0    0 -0.00000000000E+00 -0.00000000000E+00 -0.50000000000E+03  0.50000000000E+03  0.00000000000E+00 0. -1.
         23    2    1    2    0    0 -0.10532158423E+03 -0.22362285142E+03 -0.39152570550E+03  0.47209453994E+03  0.92092675037E+02 0.  0.
        -11    1    3    3    0    0 -0.61854434704E+02 -0.20766323846E+03 -0.33582849098E+03  0.39966331712E+03  0.00000000000E+00 0. -1.
         11    1    3    3    0    0 -0.43467149530E+02 -0.15959612960E+02 -0.55697214519E+02  0.72431222820E+02  0.00000000000E+00 0.  1.
        -15    1    1    2    0    0  0.16758625607E+03  0.23177301032E+03  0.28210849644E+03  0.40173653434E+03  0.17770000000E+01 0.  1.
         15    1    1    2    0    0 -0.62264671834E+02 -0.81501589021E+01  0.10941720906E+03  0.12616892571E+03  0.17770000000E+01 0. -1.
</event>
<event>
 7    1  0.8151806E-006  0.5012582E+03  0.7546771E-02  0.9396999E-01
        -11   -1    0    0    0    0  0.00000000000E+00  0.00000000000E+00  0.50000000000E+03  0.50000000000E+03  0.00000000000E+00 0.  1.
         11   -1    0    0    0    0 -0.00000000000E+00 -0.00000000000E+00 -0.50000000000E+03  0.50000000000E+03  0.00000000000E+00 0. -1.
         23    2    1    2    0    0  0.22548982444E+03 -0.40308087302E+03  0.17148204943E+03  0.50125820836E+03  0.92378823633E+02 0.  0.
        -11    1    3    3    0    0  0.65540374074E+02 -0.17486824823E+03  0.10693592345E+03  0.21519697162E+03  0.00000000000E+00 0. -1.
         11    1    3    3    0    0  0.15994945036E+03 -0.22821262479E+03  0.64546125983E+02  0.28606123674E+03  0.00000000000E+00 0.  1.
        -15    1    1    2    0    0 -0.12953541298E+02  0.67333017803E+02 -0.43720112293E+02  0.81339630357E+02  0.17770000000E+01 0. -1.
         15    1    1    2    0    0 -0.21253628314E+03  0.33574785521E+03 -0.12776193714E+03  0.41740216128E+03  0.17770000000E+01 0.  1.
</event>
<event>
 7    1  0.8151806E-006  0.1000000E+04  0.7546771E-02  0.8684367E-01
        -11   -1    0    0    0    0  0.00000000000E+00  0.00000000000E+00  0.50000000000E+03  0.50000000000E+03  0.00000000000E+00 0.  1.
         11   -1    0    0    0    0 -0.00000000000E+00 -0.00000000000E+00 -0.50000000000E+03  0.50000000000E+03  0.00000000000E+00 0. -1.
         23    2    1    2    0    0  0.38000175359E+01  0.15569861121E+03 -0.37593143381E+03  0.41835564982E+03  0.97162282514E+02 0.  0.
        -11    1    3    3    0    0 -0.45018775766E+02  0.60605805739E+02 -0.13270708540E+03  0.15267915501E+03  0.00000000000E+00 0.  1.
         11    1    3    3    0    0  0.48818793302E+02  0.95092805475E+02 -0.24322434842E+03  0.26567649481E+03  0.00000000000E+00 0. -1.
        -15    1    1    2    0    0  0.31171917942E+01 -0.28005554407E+03  0.35992363657E+03  0.45605811750E+03  0.17770000000E+01 0.  1.
         15    1    1    2    0    0 -0.69172093300E+01  0.12435693286E+03  0.16007797244E+02  0.12558623267E+03  0.17770000000E+01 0. -1.
</event>
<event>
 6    1  0.8151806E-006  0.4425246E+03  0.7546771E-02  0.9538479E-01
        -11   -1    0    0    0    0  0.00000000000E+00  0.00000000000E+00  0.50000000000E+03  0.50000000000E+03  0.00000000000E+00 0. -1.
         11   -1    0    0    0    0 -0.00000000000E+00 -0.00000000000E+00 -0.50000000000E+03  0.50000000000E+03  0.00000000000E+00 0.  1.
        -11    1    1    2    0    0  0.10900586828E+03  0.69728297198E+02 -0.73909500024E+01  0.12961072830E+03  0.00000000000E+00 0. -1.
         11    1    1    2    0    0 -0.45291185602E+01 -0.12412465377E+03 -0.40183862625E+03  0.42059686653E+03  0.00000000000E+00 0.  1.
        -15    1    1    2    0    0 -0.11130764096E+03  0.90829883404E+02  0.36372616600E+03  0.39107459674E+03  0.17770000000E+01 0. -1.
         15    1    1    2    0    0  0.68308912396E+01 -0.36433526829E+02  0.45503410251E+02  0.58717808421E+02  0.17770000000E+01 0.  1.
</event>
<event>
 6    1  0.8151806E-006  0.5061166E+03  0.7546771E-02  0.9386226E-01
        -11   -1    0    0    0    0  0.00000000000E+00  0.00000000000E+00  0.50000000000E+03  0.50000000000E+03  0.00000000000E+00 0.  1.
         11   -1    0    0    0    0 -0.00000000000E+00 -0.00000000000E+00 -0.50000000000E+03  0.50000000000E+03  0.00000000000E+00 0. -1.
        -11    1    1    2    0    0  0.13271923319E+02 -0.51887788873E+02 -0.14942352085E+03  0.15873208613E+03  0.00000000000E+00 0.  1.
         11    1    1    2    0    0 -0.15974269179E+03 -0.56390225148E+02 -0.30327947005E+03  0.34738454489E+03  0.00000000000E+00 0. -1.
        -15    1    1    2    0    0  0.18518532113E+02  0.19497284591E+02  0.16067393596E+03  0.16291823583E+03  0.17770000000E+01 0. -1.
         15    1    1    2    0    0  0.12795223636E+03  0.88780729431E+02  0.29202905494E+03  0.33096513316E+03  0.17770000000E+01 0.  1.
</event>
<event>
 7    1  0.8151806E-006  0.1000000E+04  0.7546771E-02  0.8684367E-01
        -11   -1    0    0    0    0  0.00000000000E+00  0.00000000000E+00  0.50000000000E+03  0.50000000000E+03  0.00000000000E+00 0.  1.
         11   -1    0    0    0    0 -0.00000000000E+00 -0.00000000000E+00 -0.50000000000E+03  0.50000000000E+03  0.00000000000E+00 0. -1.
         23    2    1    2    0    0 -0.17054574681E+03 -0.30698051936E+02 -0.29755801213E+03  0.35650107873E+03  0.92325654106E+02 0.  0.
        -11    1    3    3    0    0 -0.16384680435E+03 -0.45446186197E+02 -0.29443493969E+03  0.34000450709E+03  0.00000000000E+00 0. -1.
         11    1    3    3    0    0 -0.66989424591E+01  0.14748134261E+02 -0.31230724405E+01  0.16496571635E+02  0.00000000000E+00 0.  1.
        -15    1    1    2    0    0  0.32205891293E+03 -0.60371299274E+02  0.32854691768E+03  0.46401818070E+03  0.17770000000E+01 0.  1.
         15    1    1    2    0    0 -0.15151316612E+03  0.91069351210E+02 -0.30988905554E+02  0.17948074057E+03  0.17770000000E+01 0. -1.
</event>
<event>
 7    1  0.8151806E-006  0.5036959E+03  0.7546771E-02  0.9391578E-01
        -11   -1    0    0    0    0  0.00000000000E+00  0.00000000000E+00  0.50000000000E+03  0.50000000000E+03  0.00000000000E+00 0.  1.
         11   -1    0    0    0    0 -0.00000000000E+00 -0.00000000000E+00 -0.50000000000E+03  0.50000000000E+03  0.00000000000E+00 0. -1.
         23    2    1    2    0    0  0.31875739608E+02  0.22352599559E+02 -0.49398364720E+03  0.50369588412E+03  0.90410168066E+02 0.  0.
        -11    1    3    3    0    0 -0.14414201892E+02  0.62628757753E+00 -0.11339912805E+02  0.18350887574E+02  0.00000000000E+00 0.  1.
         11    1    3    3    0    0  0.46289941500E+02  0.21726311981E+02 -0.48264373440E+03  0.48534499654E+03  0.00000000000E+00 0. -1.
        -15    1    1    2    0    0 -0.29882372684E+02 -0.24144332665E+02  0.48798250486E+03  0.48949564633E+03  0.17770000000E+01 0.  1.
         15    1    1    2    0    0 -0.19933669240E+01  0.17917331065E+01  0.60011423390E+01  0.68084695484E+01  0.17770000000E+01 0. -1.
</event>
<event>
 7    1  0.8151806E-006  0.5040698E+03  0.7546771E-02  0.9390749E-01
        -11   -1    0    0    0    0  0.00000000000E+00  0.00000000000E+00  0.50000000000E+03  0.50000000000E+03  0.00000000000E+00 0.  1.
         11   -1    0    0    0    0 -0.00000000000E+00 -0.00000000000E+00 -0.50000000000E+03  0.50000000000E+03  0.00000000000E+00 0. -1.
         23    2    1    2    0    0  0.13672813839E+02  0.13973259483E+01 -0.49547226021E+03  0.50406979657E+03  0.91677155373E+02 0.  0.
        -11    1    3    3    0    0  0.26950443764E+01 -0.20978906195E+02 -0.46124315047E+03  0.46172786533E+03  0.00000000000E+00 0. -1.
         11    1    3    3    0    0  0.10977769463E+02  0.22376232143E+02 -0.34229109745E+02  0.42341931241E+02  0.00000000000E+00 0.  1.
        -15    1    1    2    0    0 -0.11742478025E+01 -0.69416303536E+01  0.13612614682E+03  0.13631966353E+03  0.17770000000E+01 0. -1.
         15    1    1    2    0    0 -0.12498566036E+02  0.55443044053E+01  0.35934611339E+03  0.35961053990E+03  0.17770000000E+01 0.  1.
</event>
<event>
 7    1  0.8151806E-006  0.5002660E+03  0.7546771E-02  0.9399215E-01
        -11   -1    0    0    0    0  0.00000000000E+00  0.00000000000E+00  0.50000000000E+03  0.50000000000E+03  0.00000000000E+00 0.  1.
         11   -1    0    0    0    0 -0.00000000000E+00 -0.00000000000E+00 -0.50000000000E+03  0.50000000000E+03  0.00000000000E+00 0. -1.
         23    2    1    2    0    0 -0.68574779096E+02 -0.24495371657E+03 -0.42048184640E+03  0.49973398528E+03  0.90687646872E+02 0.  0.
        -11    1    3    3    0    0 -0.76480836971E+02 -0.24156551750E+03 -0.42071925536E+03  0.49112921874E+03  0.00000000000E+00 0. -1.
         11    1    3    3    0    0  0.79060578743E+01 -0.33881990739E+01  0.23740896252E+00  0.86047665333E+01  0.00000000000E+00 0.  1.
        -15    1    1    2    0    0  0.13380311353E+02  0.18383732728E+03  0.24678254172E+03  0.30802593439E+03  0.17770000000E+01 0.  1.
         15    1    1    2    0    0  0.55194467743E+02  0.61116389297E+02  0.17369930468E+03  0.19224008033E+03  0.17770000000E+01 0. -1.
</event>
<event>
 7    1  0.8151806E-006  0.5021474E+03  0.7546771E-02  0.9395017E-01
        -11   -1    0    0    0    0  0.00000000000E+00  0.00000000000E+00  0.50000000000E+03  0.50000000000E+03  0.00000000000E+00 0. -1.
         11   -1    0    0    0    0 -0.00000000000E+00 -0.00000000000E+00 -0.50000000000E+03  0.50000000000E+03  0.00000000000E+00 0.  1.
         23    2    1    2    0    0 -0.13959639978E+02 -0.40192692686E+01 -0.49449493635E+03  0.50214744275E+03  0.86114958647E+02 0.  0.
        -11    1    3    3    0    0  0.18950801487E+02  0.19791080132E+02 -0.37374605926E+03  0.37474916483E+03  0.00000000000E+00 0.  1.
         11    1    3    3    0    0 -0.32910441465E+02 -0.23810349401E+02 -0.12074887709E+03  0.12739827791E+03  0.00000000000E+00 0. -1.
        -15    1    1    2    0    0  0.31995967968E+02  0.30453758013E+01  0.41784615047E+03  0.41908421525E+03  0.17770000000E+01 0. -1.
         15    1    1    2    0    0 -0.18036327989E+02  0.97389346730E+00  0.76648785879E+02  0.78768342001E+02  0.17770000000E+01 0.  1.
</event>
<event>
 7    1  0.8151806E-006  0.5031858E+03  0.7546771E-02  0.9392709E-01
        -11   -1    0    0    0    0  0.00000000000E+00  0.00000000000E+00  0.50000000000E+03  0.50000000000E+03  0.00000000000E+00 0.  1.
         11   -1    0    0    0    0 -0.00000000000E+00 -0.00000000000E+00 -0.50000000000E+03  0.50000000000E+03  0.00000000000E+00 0. -1.
         23    2    1    2    0    0  0.85030371272E+01  0.83220597444E+01 -0.49467534293E+03  0.50318578666E+03  0.91382069767E+02 0.  0.
        -11    1    3    3    0    0 -0.41222035872E+02  0.21173454695E+01 -0.19159494850E+03  0.19599072347E+03  0.00000000000E+00 0. -1.
         11    1    3    3    0    0  0.49725073000E+02  0.62047142748E+01 -0.30308039443E+03  0.30719506319E+03  0.00000000000E+00 0.  1.
        -15    1    1    2    0    0  0.40429215516E+01  0.16531606897E+02  0.13963373201E+03  0.14067827155E+03  0.17770000000E+01 0. -1.
         15    1    1    2    0    0 -0.12545958679E+02 -0.24853666641E+02  0.35504161092E+03  0.35613594179E+03  0.17770000000E+01 0.  1.
</event>
<event>
 7    1  0.8151806E-006  0.1000000E+04  0.7546771E-02  0.8684367E-01
        -11   -1    0    0    0    0  0.00000000000E+00  0.00000000000E+00  0.50000000000E+03  0.50000000000E+03  0.00000000000E+00 0.  1.
         11   -1    0    0    0    0 -0.00000000000E+00 -0.00000000000E+00 -0.50000000000E+03  0.50000000000E+03  0.00000000000E+00 0. -1.
         23    2    1    2    0    0 -0.12637901967E+03  0.14405347434E+01 -0.32904576899E+03  0.36421387593E+03  0.91689135557E+02 0.  0.
        -11    1    3    3    0    0 -0.55856083950E+02 -0.44506041843E+02 -0.16641046071E+03  0.18108873877E+03  0.00000000000E+00 0.  1.
         11    1    3    3    0    0 -0.70522935722E+02  0.45946576586E+02 -0.16263530828E+03  0.18312513716E+03  0.00000000000E+00 0. -1.
        -15    1    1    2    0    0  0.67062066094E+02 -0.21468030695E+03  0.34721494040E+03  0.41369835324E+03  0.17770000000E+01 0.  1.
         15    1    1    2    0    0  0.59316953578E+02  0.21323977221E+03 -0.18169171414E+02  0.22208777083E+03  0.17770000000E+01 0. -1.
</event>
<event>
 7    1  0.8151806E-006  0.5038630E+03  0.7546771E-02  0.9391207E-01
        -11   -1    0    0    0    0  0.00000000000E+00  0.00000000000E+00  0.50000000000E+03  0.50000000000E+03  0.00000000000E+00 0.  1.
         11   -1    0    0    0    0 -0.00000000000E+00 -0.00000000000E+00 -0.50000000000E+03  0.50000000000E+03  0.00000000000E+00 0. -1.
         23    2    1    2    0    0  0.25677279675E+01  0.56610194271E+01 -0.49525062250E+03  0.50386302816E+03  0.92553399112E+02 0.  0.
        -11    1    3    3    0    0  0.41638881456E+02  0.25612460650E+02 -0.25816273607E+03  0.26275043841E+03  0.00000000000E+00 0.  1.
         11    1    3    3    0    0 -0.39071153489E+02 -0.19951441223E+02 -0.23708788644E+03  0.24111258975E+03  0.00000000000E+00 0. -1.
        -15    1    1    2    0    0  0.11336339395E+02 -0.63284450950E+01  0.14074815571E+03  0.14135686355E+03  0.17770000000E+01 0. -1.
         15    1    1    2    0    0 -0.13904067362E+02  0.66742566791E+00  0.35450246680E+03  0.35478010829E+03  0.17770000000E+01 0.  1.
</event>
<event>
 7    1  0.1111209E-005  0.5034677E+03  0.7546771E-02  0.9392084E-01
        -11   -1    0    0    0    0  0.00000000000E+00  0.00000000000E+00  0.50000000000E+03  0.50000000000E+03  0.00000000000E+00 0. -1.
         11   -1    0    0    0    0 -0.00000000000E+00 -0.00000000000E+00 -0.50000000000E+03  0.50000000000E+03  0.00000000000E+00 0.  1.
         23    2    1    2    0    0 -0.34969319472E+02  0.17226735406E+02  0.49396552592E+03  0.50346765420E+03  0.89208319752E+02 0.  0.
        -11    1    3    3    0    0 -0.38655444750E+02  0.90070347537E+00  0.48031793210E+03  0.48187173664E+03  0.00000000000E+00 0. -1.
         11    1    3    3    0    0  0.36861252778E+01  0.16326031930E+02  0.13647593813E+02  0.21595917555E+02  0.00000000000E+00 0.  1.
        -15    1    1    2    0    0  0.21421508280E+02  0.59463386486E+01 -0.17097497392E+03  0.17242343053E+03  0.17770000000E+01 0. -1.
         15    1    1    2    0    0  0.13547811192E+02 -0.23173074054E+02 -0.32299055200E+03  0.32410891527E+03  0.17770000000E+01 0.  1.
</event>
<event>
 7    1  0.8151806E-006  0.5011852E+03  0.7546771E-02  0.9397162E-01
        -11   -1    0    0    0    0  0.00000000000E+00  0.00000000000E+00  0.50000000000E+03  0.50000000000E+03  0.00000000000E+00 0.  1.
         11   -1    0    0    0    0 -0.00000000000E+00 -0.00000000000E+00 -0.50000000000E+03  0.50000000000E+03  0.00000000000E+00 0. -1.
         23    2    1    2    0    0  0.74694125916E+02  0.30993380992E+03 -0.37643800022E+03  0.50118522226E+03  0.88560036301E+02 0.  0.
        -11    1    3    3    0    0  0.84123442678E+02  0.28426776231E+03 -0.30802091076E+03  0.42750648623E+03  0.00000000000E+00 0. -1.
         11    1    3    3    0    0 -0.94293167618E+01  0.25666047602E+02 -0.68417089456E+02  0.73678736035E+02  0.00000000000E+00 0.  1.
        -15    1    1    2    0    0 -0.16443078482E+02 -0.28898499739E+02  0.13077386468E+02  0.35772529726E+02  0.17770000000E+01 0. -1.
         15    1    1    2    0    0 -0.58251047435E+02 -0.28103531018E+03  0.36336061375E+03  0.46304224801E+03  0.17770000000E+01 0.  1.
</event>
<event>
 7    1  0.8151806E-006  0.5043638E+03  0.7546771E-02  0.9390098E-01
        -11   -1    0    0    0    0  0.00000000000E+00  0.00000000000E+00  0.50000000000E+03  0.50000000000E+03  0.00000000000E+00 0. -1.
         11   -1    0    0    0    0 -0.00000000000E+00 -0.00000000000E+00 -0.50000000000E+03  0.50000000000E+03  0.00000000000E+00 0.  1.
         23    2    1    2    0    0 -0.42538684212E+02 -0.73687191745E+02 -0.47974526865E+03  0.49563616151E+03  0.90886412211E+02 0.  0.
        -11    1    3    3    0    0  0.20615950250E+02 -0.54819196080E+02 -0.22983973755E+03  0.23718445696E+03  0.00000000000E+00 0. -1.
         11    1    3    3    0    0 -0.63154634463E+02 -0.18867995665E+02 -0.24990553110E+03  0.25845170455E+03  0.00000000000E+00 0.  1.
        -15    1    1    2    0    0  0.31651779482E+02 -0.21352903128E+02  0.28319816603E+03  0.28576588423E+03  0.17770000000E+01 0. -1.
         15    1    1    2    0    0  0.10886904730E+02  0.95040094873E+02  0.19654710262E+03  0.21859795426E+03  0.17770000000E+01 0.  1.
</event>
<event>
 7    1  0.8151806E-006  0.5632091E+03  0.7546771E-02  0.9268520E-01
        -11   -1    0    0    0    0  0.00000000000E+00  0.00000000000E+00  0.50000000000E+03  0.50000000000E+03  0.00000000000E+00 0. -1.
         11   -1    0    0    0    0 -0.00000000000E+00 -0.00000000000E+00 -0.50000000000E+03  0.50000000000E+03  0.00000000000E+00 0.  1.
         23    2    1    2    0    0  0.61151833520E+01  0.29645099617E+01 -0.42725950500E+03  0.43679086405E+03  0.90495251354E+02 0.  0.
        -11    1    3    3    0    0  0.37820500255E+02 -0.21019868863E+02 -0.13308653318E+03  0.13994374027E+03  0.00000000000E+00 0. -1.
         11    1    3    3    0    0 -0.31705316903E+02  0.23984378825E+02 -0.29417297182E+03  0.29684712378E+03  0.00000000000E+00 0.  1.
        -15    1    1    2    0    0  0.15807579142E+03 -0.29702965400E+02  0.83327634805E+02  0.18115428352E+03  0.17770000000E+01 0.  1.
         15    1    1    2    0    0 -0.16419097477E+03  0.26738455439E+02  0.34393187020E+03  0.38205485243E+03  0.17770000000E+01 0. -1.
</event>
<event>
 7    1  0.8151806E-006  0.5041594E+03  0.7546771E-02  0.9390551E-01
        -11   -1    0    0    0    0  0.00000000000E+00  0.00000000000E+00  0.50000000000E+03  0.50000000000E+03  0.00000000000E+00 0. -1.
         11   -1    0    0    0    0 -0.00000000000E+00 -0.00000000000E+00 -0.50000000000E+03  0.50000000000E+03  0.00000000000E+00 0.  1.
         23    2    1    2    0    0 -0.10639397434E+01 -0.79408835546E+00 -0.49574190732E+03  0.50415935636E+03  0.91732520849E+02 0.  0.
        -11    1    3    3    0    0 -0.37824092289E+02 -0.24907161945E+02 -0.19301992416E+03  0.19826174567E+03  0.00000000000E+00 0. -1.
         11    1    3    3    0    0  0.36760152546E+02  0.24113073589E+02 -0.30272198316E+03  0.30589761068E+03  0.00000000000E+00 0.  1.
        -15    1    1    2    0    0  0.21304122321E+01 -0.37727420737E+01  0.28887395771E+03  0.28891191290E+03  0.17770000000E+01 0.  1.
         15    1    1    2    0    0 -0.10664724887E+01  0.45668304292E+01  0.20686794961E+03  0.20692873075E+03  0.17770000000E+01 0. -1.
</event>
<event>
 7    1  0.8151806E-006  0.5042078E+03  0.7546771E-02  0.9390443E-01
        -11   -1    0    0    0    0  0.00000000000E+00  0.00000000000E+00  0.50000000000E+03  0.50000000000E+03  0.00000000000E+00 0. -1.
         11   -1    0    0    0    0 -0.00000000000E+00 -0.00000000000E+00 -0.50000000000E+03  0.50000000000E+03  0.00000000000E+00 0.  1.
         23    2    1    2    0    0  0.14066310329E+02  0.66956453110E+01 -0.49529039290E+03  0.50420784138E+03  0.93114345060E+02 0.  0.
        -11    1    3    3    0    0 -0.33355637817E+02  0.20711735229E+02 -0.30827306023E+03  0.31076334117E+03  0.00000000000E+00 0. -1.
         11    1    3    3    0    0  0.47421948146E+02 -0.14016089918E+02 -0.18701733267E+03  0.19344450021E+03  0.00000000000E+00 0.  1.
        -15    1    1    2    0    0  0.31567005772E+01 -0.31240289980E+00  0.59253010466E+02  0.59364461864E+02  0.17770000000E+01 0.  1.
         15    1    1    2    0    0 -0.17223010906E+02 -0.63832424112E+01  0.43603738243E+03  0.43642769676E+03  0.17770000000E+01 0. -1.
</event>
<event>
 7    1  0.8151806E-006  0.8728387E+03  0.7546771E-02  0.8815882E-01
        -11   -1    0    0    0    0  0.00000000000E+00  0.00000000000E+00  0.50000000000E+03  0.50000000000E+03  0.00000000000E+00 0.  1.
         11   -1    0    0    0    0 -0.00000000000E+00 -0.00000000000E+00 -0.50000000000E+03  0.50000000000E+03  0.00000000000E+00 0. -1.
         23    2    1    2    0    0 -0.38594329152E+02  0.79055237633E+02 -0.39550109943E+01  0.12716133115E+03  0.91733904246E+02 0.  0.
        -11    1    3    3    0    0 -0.66937490930E+02  0.67225705107E+02 -0.11424440959E+02  0.95553340969E+02  0.00000000000E+00 0. -1.
         11    1    3    3    0    0  0.28343161778E+02  0.11829532526E+02  0.74694299646E+01  0.31607990182E+02  0.00000000000E+00 0.  1.
        -15    1    1    2    0    0 -0.16177027053E+03 -0.22902522216E+03  0.34830141380E+03  0.44714561990E+03  0.17770000000E+01 0.  1.
         15    1    1    2    0    0  0.20036459968E+03  0.14996998453E+03 -0.34434640281E+03  0.42569304895E+03  0.17770000000E+01 0. -1.
</event>
<event>
 7    1  0.8151806E-006  0.5038156E+03  0.7546771E-02  0.9391312E-01
        -11   -1    0    0    0    0  0.00000000000E+00  0.00000000000E+00  0.50000000000E+03  0.50000000000E+03  0.00000000000E+00 0.  1.
         11   -1    0    0    0    0 -0.00000000000E+00 -0.00000000000E+00 -0.50000000000E+03  0.50000000000E+03  0.00000000000E+00 0. -1.
         23    2    1    2    0    0 -0.60132497998E+02 -0.23393733652E+02  0.49135968781E+03  0.50381555188E+03  0.90733584826E+02 0.  0.
        -11    1    3    3    0    0 -0.34033483968E+02 -0.21913168480E+01  0.44625382478E+03  0.44755508714E+03  0.00000000000E+00 0.  1.
         11    1    3    3    0    0 -0.26099014030E+02 -0.21202416804E+02  0.45105863034E+02  0.56260464731E+02  0.00000000000E+00 0. -1.
        -15    1    1    2    0    0  0.45524469706E+02  0.24156366629E+02 -0.31323539386E+03  0.31745169253E+03  0.17770000000E+01 0. -1.
         15    1    1    2    0    0  0.14608028292E+02 -0.76263297762E+00 -0.17812429395E+03  0.17873275560E+03  0.17770000000E+01 0.  1.
</event>
<event>
 7    1  0.8151806E-006  0.5017300E+03  0.7546771E-02  0.9395947E-01
        -11   -1    0    0    0    0  0.00000000000E+00  0.00000000000E+00  0.50000000000E+03  0.50000000000E+03  0.00000000000E+00 0. -1.
         11   -1    0    0    0    0 -0.00000000000E+00 -0.00000000000E+00 -0.50000000000E+03  0.50000000000E+03  0.00000000000E+00 0. -1.
         23    2    1    2    0    0  0.13114403656E+03 -0.52637273078E+02 -0.47627725873E+03  0.50173000928E+03  0.70167899967E+02 0.  0.
        -11    1    3    3    0    0  0.26178540742E+02  0.10545107245E+02 -0.16157148117E+03  0.16401786125E+03  0.00000000000E+00 0. -1.
         11    1    3    3    0    0  0.10496549582E+03 -0.63182380323E+02 -0.31470577756E+03  0.33771214803E+03  0.00000000000E+00 0. -1.
        -15    1    1    2    0    0 -0.98383410158E+02  0.41968766228E+02  0.40773513644E+03  0.42153501866E+03  0.17770000000E+01 0. -1.
         15    1    1    2    0    0 -0.32760626403E+02  0.10668506850E+02  0.68542122288E+02  0.76734972063E+02  0.17770000000E+01 0.  1.
</event>
<event>
 7    1  0.8151806E-006  0.5035515E+03  0.7546771E-02  0.9391898E-01
        -11   -1    0    0    0    0  0.00000000000E+00  0.00000000000E+00  0.50000000000E+03  0.50000000000E+03  0.00000000000E+00 0.  1.
         11   -1    0    0    0    0 -0.00000000000E+00 -0.00000000000E+00 -0.50000000000E+03  0.50000000000E+03  0.00000000000E+00 0. -1.
         23    2    1    2    0    0 -0.11425488234E+03  0.23654001508E+02 -0.48104518153E+03  0.50355153562E+03  0.92444536990E+02 0.  0.
        -11    1    3    3    0    0 -0.15024894828E+02 -0.69446888620E+01 -0.24640889041E+03  0.24696420275E+03  0.00000000000E+00 0.  1.
         11    1    3    3    0    0 -0.99229987515E+02  0.30598690370E+02 -0.23463629112E+03  0.25658733287E+03  0.00000000000E+00 0. -1.
        -15    1    1    2    0    0  0.67090741591E+01  0.78173756406E+01  0.49198506431E+02  0.50296856781E+02  0.17770000000E+01 0. -1.
         15    1    1    2    0    0  0.10754580818E+03 -0.31471377148E+02  0.43184667510E+03  0.44615160760E+03  0.17770000000E+01 0.  1.
</event>
<event>
 7    1  0.8151806E-006  0.5004668E+03  0.7546771E-02  0.9398766E-01
        -11   -1    0    0    0    0  0.00000000000E+00  0.00000000000E+00  0.50000000000E+03  0.50000000000E+03  0.00000000000E+00 0.  1.
         11   -1    0    0    0    0 -0.00000000000E+00 -0.00000000000E+00 -0.50000000000E+03  0.50000000000E+03  0.00000000000E+00 0. -1.
         23    2    1    2    0    0  0.79852419015E+01 -0.18734201901E+02 -0.49167230626E+03  0.49953322399E+03  0.85889759146E+02 0.  0.
        -11    1    3    3    0    0 -0.97821694092E+01  0.24804356208E+02 -0.33230447142E+03  0.33337247734E+03  0.00000000000E+00 0. -1.
         11    1    3    3    0    0  0.17767411311E+02 -0.43538558109E+02 -0.15936783484E+03  0.16616074665E+03  0.00000000000E+00 0.  1.
        -15    1    1    2    0    0  0.27176382797E+01  0.24300359819E+02  0.30493420673E+02  0.39126710550E+02  0.17770000000E+01 0. -1.
         15    1    1    2    0    0 -0.10702880181E+02 -0.55661579186E+01  0.46117888558E+03  0.46134006546E+03  0.17770000000E+01 0.  1.
</event>
<event>
 7    1  0.8151806E-006  0.5016621E+03  0.7546771E-02  0.9396098E-01
        -11   -1    0    0    0    0  0.00000000000E+00  0.00000000000E+00  0.50000000000E+03  0.50000000000E+03  0.00000000000E+00 0.  1.
         11   -1    0    0    0    0 -0.00000000000E+00 -0.00000000000E+00 -0.50000000000E+03  0.50000000000E+03  0.00000000000E+00 0. -1.
         23    2    1    2    0    0 -0.26943548289E+03 -0.11333459248E+03 -0.39808162892E+03  0.50166211594E+03  0.88066372636E+02 0.  0.
        -11    1    3    3    0    0 -0.21367222888E+03 -0.12065028242E+03 -0.29049850076E+03  0.38026529027E+03  0.00000000000E+00 0. -1.
         11    1    3    3    0    0 -0.55763254012E+02  0.73156899335E+01 -0.10758312816E+03  0.12139682566E+03  0.00000000000E+00 0.  1.
        -15    1    1    2    0    0  0.74964240286E+02  0.38773970443E+01  0.79334790165E+02  0.10923295377E+03  0.17770000000E+01 0. -1.
         15    1    1    2    0    0  0.19447124260E+03  0.10945719544E+03  0.31874683876E+03  0.38910493029E+03  0.17770000000E+01 0.  1.
</event>
<event>
 7    1  0.8151806E-006  0.5037380E+03  0.7546771E-02  0.9391484E-01
        -11   -1    0    0    0    0  0.00000000000E+00  0.00000000000E+00  0.50000000000E+03  0.50000000000E+03  0.00000000000E+00 0.  1.
         11   -1    0    0    0    0 -0.00000000000E+00 -0.00000000000E+00 -0.50000000000E+03  0.50000000000E+03  0.00000000000E+00 0. -1.
         23    2    1    2    0    0 -0.21537533162E+02 -0.18098014622E+02 -0.49538868064E+03  0.50373795626E+03  0.86894074658E+02 0.  0.
        -11    1    3    3    0    0  0.82685939985E+01 -0.36174523122E+02 -0.40753819102E+03  0.40922407421E+03  0.00000000000E+00 0. -1.
         11    1    3    3    0    0 -0.29806127160E+02  0.18076508500E+02 -0.87850489612E+02  0.94513882054E+02  0.00000000000E+00 0.  1.
        -15    1    1    2    0    0  0.16492117015E+02  0.14256823364E+02  0.42613255988E+03  0.42669352380E+03  0.17770000000E+01 0.  1.
         15    1    1    2    0    0  0.50454161463E+01  0.38411912576E+01  0.69256120758E+02  0.69568519934E+02  0.17770000000E+01 0. -1.
</event>
<event>
 7    1  0.8151806E-006  0.1000000E+04  0.7546771E-02  0.8684367E-01
        -11   -1    0    0    0    0  0.00000000000E+00  0.00000000000E+00  0.50000000000E+03  0.50000000000E+03  0.00000000000E+00 0.  1.
         11   -1    0    0    0    0 -0.00000000000E+00 -0.00000000000E+00 -0.50000000000E+03  0.50000000000E+03  0.00000000000E+00 0. -1.
         23    2    1    2    0    0 -0.23668698302E+03 -0.10063709379E+02 -0.31930196392E+03  0.40820149466E+03  0.92480862370E+02 0.  0.
        -11    1    3    3    0    0 -0.39206822626E+02 -0.40357815176E+01 -0.91428625788E+01  0.40460529025E+02  0.00000000000E+00 0.  1.
         11    1    3    3    0    0 -0.19748016039E+03 -0.60279278613E+01 -0.31015910134E+03  0.36774096564E+03  0.00000000000E+00 0. -1.
        -15    1    1    2    0    0  0.14475323324E+03 -0.84200445141E+02  0.40255738224E+03  0.43600323075E+03  0.17770000000E+01 0.  1.
         15    1    1    2    0    0  0.91933749775E+02  0.94264154520E+02 -0.83255418321E+02  0.15579527459E+03  0.17770000000E+01 0. -1.
</event>
<event>
 7    1  0.8151806E-006  0.5043077E+03  0.7546771E-02  0.9390222E-01
        -11   -1    0    0    0    0  0.00000000000E+00  0.00000000000E+00  0.50000000000E+03  0.50000000000E+03  0.00000000000E+00 0. -1.
         11   -1    0    0    0    0 -0.00000000000E+00 -0.00000000000E+00 -0.50000000000E+03  0.50000000000E+03  0.00000000000E+00 0.  1.
         23    2    1    2    0    0 -0.34971662667E+01  0.14727007125E+02 -0.49535623746E+03  0.50430772513E+03  0.93377538670E+02 0.  0.
        -11    1    3    3    0    0  0.35413843092E+02 -0.21728830383E+01 -0.37536366323E+03  0.37703679048E+03  0.00000000000E+00 0.  1.
         11    1    3    3    0    0 -0.38911009358E+02  0.16899890163E+02 -0.11999257423E+03  0.12727093465E+03  0.00000000000E+00 0. -1.
        -15    1    1    2    0    0  0.17351543115E+01 -0.39177849089E+00  0.28920568164E+02  0.29029661431E+02  0.17770000000E+01 0.  1.
         15    1    1    2    0    0  0.17620119553E+01 -0.14335228634E+02  0.46643566929E+03  0.46666261344E+03  0.17770000000E+01 0. -1.
</event>
<event>
 7    1  0.8151806E-006  0.1000000E+04  0.7546771E-02  0.8684367E-01
        -11   -1    0    0    0    0  0.00000000000E+00  0.00000000000E+00  0.50000000000E+03  0.50000000000E+03  0.00000000000E+00 0.  1.
         11   -1    0    0    0    0 -0.00000000000E+00 -0.00000000000E+00 -0.50000000000E+03  0.50000000000E+03  0.00000000000E+00 0. -1.
         23    2    1    2    0    0  0.13029684240E+03 -0.88339600938E+02 -0.40572575118E+03  0.44376001883E+03  0.86766450389E+02 0.  0.
        -11    1    3    3    0    0  0.72129610732E+02 -0.24372962431E+01 -0.21286889165E+03  0.22477051895E+03  0.00000000000E+00 0. -1.
         11    1    3    3    0    0  0.58167231671E+02 -0.85902304695E+02 -0.19285685952E+03  0.21898949988E+03  0.00000000000E+00 0.  1.
        -15    1    1    2    0    0 -0.16259627199E+03  0.12919862315E+03  0.44493742160E+03  0.49102168868E+03  0.17770000000E+01 0.  1.
         15    1    1    2    0    0  0.32299429590E+02 -0.40859022211E+02 -0.39211670425E+02  0.65218292483E+02  0.17770000000E+01 0. -1.
</event>
<event>
 7    1  0.8151806E-006  0.5042285E+03  0.7546771E-02  0.9390398E-01
        -11   -1    0    0    0    0  0.00000000000E+00  0.00000000000E+00  0.50000000000E+03  0.50000000000E+03  0.00000000000E+00 0.  1.
         11   -1    0    0    0    0 -0.00000000000E+00 -0.00000000000E+00 -0.50000000000E+03  0.50000000000E+03  0.00000000000E+00 0. -1.
         23    2    1    2    0    0 -0.19295062106E+02  0.19124393170E+02 -0.49497568408E+03  0.50422850527E+03  0.92235653927E+02 0.  0.
        -11    1    3    3    0    0  0.11354114272E+01 -0.25616937017E+02 -0.46820583648E+02  0.53382428517E+02  0.00000000000E+00 0.  1.
         11    1    3    3    0    0 -0.20430473533E+02  0.44741330187E+02 -0.44815510043E+03  0.45084607675E+03  0.00000000000E+00 0. -1.
        -15    1    1    2    0    0  0.25795133657E+01 -0.55371606851E+01  0.95719088521E+02  0.95930264640E+02  0.17770000000E+01 0. -1.
         15    1    1    2    0    0  0.16715548740E+02 -0.13587232485E+02  0.39925659556E+03  0.39984123009E+03  0.17770000000E+01 0.  1.
</event>
<event>
 7    1  0.8151806E-006  0.6857422E+03  0.7546771E-02  0.9059417E-01
        -11   -1    0    0    0    0  0.00000000000E+00  0.00000000000E+00  0.50000000000E+03  0.50000000000E+03  0.00000000000E+00 0. -1.
         11   -1    0    0    0    0 -0.00000000000E+00 -0.00000000000E+00 -0.50000000000E+03  0.50000000000E+03  0.00000000000E+00 0.  1.
         23    2    1    2    0    0  0.10378704121E+03  0.25683785052E+03 -0.11650145883E+03  0.31425775168E+03  0.91912530168E+02 0.  0.
        -11    1    3    3    0    0  0.28850996211E+02  0.87864335988E+02  0.57256631674E+01  0.92656919545E+02  0.00000000000E+00 0.  1.
         11    1    3    3    0    0  0.74936045002E+02  0.16897351453E+03 -0.12222712199E+03  0.22160083214E+03  0.00000000000E+00 0. -1.
        -15    1    1    2    0    0 -0.68560457328E+02  0.11376685828E+03  0.25581512192E+03  0.28824983726E+03  0.17770000000E+01 0. -1.
         15    1    1    2    0    0 -0.35226583885E+02 -0.37060470879E+03 -0.13931366309E+03  0.39749241105E+03  0.17770000000E+01 0.  1.
</event>
<event>
 7    1  0.8151806E-006  0.5008262E+03  0.7546771E-02  0.9397963E-01
        -11   -1    0    0    0    0  0.00000000000E+00  0.00000000000E+00  0.50000000000E+03  0.50000000000E+03  0.00000000000E+00 0.  1.
         11   -1    0    0    0    0 -0.00000000000E+00 -0.00000000000E+00 -0.50000000000E+03  0.50000000000E+03  0.00000000000E+00 0. -1.
         23    2    1    2    0    0 -0.11324841167E+03  0.84049031001E+02 -0.47248307050E+03  0.50082623918E+03  0.87733845159E+02 0.  0.
        -11    1    3    3    0    0 -0.61626540193E+02  0.83491415501E+02 -0.22169984659E+03  0.24478453566E+03  0.00000000000E+00 0. -1.
         11    1    3    3    0    0 -0.51621871480E+02  0.55761550074E+00 -0.25078322391E+03  0.25604170353E+03  0.00000000000E+00 0.  1.
        -15    1    1    2    0    0 -0.84687173068E+01 -0.11626867853E+02  0.17887798411E+02  0.23022473583E+02  0.17770000000E+01 0. -1.
         15    1    1    2    0    0  0.12171712898E+03 -0.72422163149E+02  0.45459527209E+03  0.47615128724E+03  0.17770000000E+01 0.  1.
</event>
<event>
 7    1  0.8151806E-006  0.1000000E+04  0.7546771E-02  0.8684367E-01
        -11   -1    0    0    0    0  0.00000000000E+00  0.00000000000E+00  0.50000000000E+03  0.50000000000E+03  0.00000000000E+00 0.  1.
         11   -1    0    0    0    0 -0.00000000000E+00 -0.00000000000E+00 -0.50000000000E+03  0.50000000000E+03  0.00000000000E+00 0. -1.
         23    2    1    2    0    0 -0.28354906065E+03 -0.18216661949E+03 -0.19950649941E+03  0.40272477198E+03  0.93806458242E+02 0.  0.
        -11    1    3    3    0    0 -0.25941439255E+01  0.92639749633E+01 -0.31566888441E+01  0.10124993792E+02  0.00000000000E+00 0.  1.
         11    1    3    3    0    0 -0.28095491672E+03 -0.19143059445E+03 -0.19634981057E+03  0.39259977818E+03  0.00000000000E+00 0. -1.
        -15    1    1    2    0    0 -0.10741465896E+03  0.57394232656E+02  0.13502919645E+03  0.18184622219E+03  0.17770000000E+01 0.  1.
         15    1    1    2    0    0  0.39096371961E+03  0.12477238683E+03  0.64477302964E+02  0.41542900584E+03  0.17770000000E+01 0. -1.
</event>
<event>
 7    1  0.8151806E-006  0.5021463E+03  0.7546771E-02  0.9395020E-01
        -11   -1    0    0    0    0  0.00000000000E+00  0.00000000000E+00  0.50000000000E+03  0.50000000000E+03  0.00000000000E+00 0.  1.
         11   -1    0    0    0    0 -0.00000000000E+00 -0.00000000000E+00 -0.50000000000E+03  0.50000000000E+03  0.00000000000E+00 0. -1.
         23    2    1    2    0    0 -0.11547896948E+03  0.21657570974E+02  0.47981778654E+03  0.50214625265E+03  0.90118300052E+02 0.  0.
        -11    1    3    3    0    0 -0.23305482589E+02  0.47010690185E+02  0.17224970321E+03  0.18006418513E+03  0.00000000000E+00 0. -1.
         11    1    3    3    0    0 -0.92173486887E+02 -0.25353119212E+02  0.30756808333E+03  0.32208206753E+03  0.00000000000E+00 0.  1.
        -15    1    1    2    0    0  0.69444368529E+02 -0.40511492337E+02 -0.24652464153E+03  0.25930919371E+03  0.17770000000E+01 0. -1.
         15    1    1    2    0    0  0.46034600947E+02  0.18853921364E+02 -0.23329314500E+03  0.23854455364E+03  0.17770000000E+01 0.  1.
</event>
<event>
 7    1  0.8151806E-006  0.1000000E+04  0.7546771E-02  0.8684367E-01
        -11   -1    0    0    0    0  0.00000000000E+00  0.00000000000E+00  0.50000000000E+03  0.50000000000E+03  0.00000000000E+00 0.  1.
         11   -1    0    0    0    0 -0.00000000000E+00 -0.00000000000E+00 -0.50000000000E+03  0.50000000000E+03  0.00000000000E+00 0. -1.
         23    2    1    2    0    0  0.93186044188E+02  0.29393556629E+02 -0.36961204472E+03  0.39311755179E+03  0.91546304789E+02 0.  0.
        -11    1    3    3    0    0  0.47718979882E+02  0.11095293076E+01 -0.30718691633E+03  0.31087317938E+03  0.00000000000E+00 0. -1.
         11    1    3    3    0    0  0.45467064306E+02  0.28284027321E+02 -0.62425128397E+02  0.82244372412E+02  0.00000000000E+00 0.  1.
        -15    1    1    2    0    0 -0.19904908203E+03 -0.14960879564E+03  0.37083777637E+03  0.44668461234E+03  0.17770000000E+01 0.  1.
         15    1    1    2    0    0  0.10586303784E+03  0.12021523901E+03 -0.12257316472E+01  0.16019783587E+03  0.17770000000E+01 0. -1.
</event>
<event>
 7    1  0.8151806E-006  0.5036560E+03  0.7546771E-02  0.9391666E-01
        -11   -1    0    0    0    0  0.00000000000E+00  0.00000000000E+00  0.50000000000E+03  0.50000000000E+03  0.00000000000E+00 0. -1.
         11   -1    0    0    0    0 -0.00000000000E+00 -0.00000000000E+00 -0.50000000000E+03  0.50000000000E+03  0.00000000000E+00 0.  1.
         23    2    1    2    0    0 -0.43342602089E+02 -0.23039148392E+03 -0.43429110623E+03  0.50365601726E+03  0.10050771986E+03 0.  0.
        -11    1    3    3    0    0 -0.35183509486E+02 -0.13053037710E+02 -0.67554651026E+02  0.77278017628E+02  0.00000000000E+00 0. -1.
         11    1    3    3    0    0 -0.81590926029E+01 -0.21733844621E+03 -0.36673645520E+03  0.42637799963E+03  0.00000000000E+00 0.  1.
        -15    1    1    2    0    0  0.25733209367E+02  0.13342180134E+03  0.19630467481E+03  0.23875145700E+03  0.17770000000E+01 0. -1.
         15    1    1    2    0    0  0.17609392722E+02  0.96969682573E+02  0.23798643142E+03  0.25759252574E+03  0.17770000000E+01 0.  1.
</event>
<event>
 7    1  0.8151806E-006  0.5039901E+03  0.7546771E-02  0.9390925E-01
        -11   -1    0    0    0    0  0.00000000000E+00  0.00000000000E+00  0.50000000000E+03  0.50000000000E+03  0.00000000000E+00 0. -1.
         11   -1    0    0    0    0 -0.00000000000E+00 -0.00000000000E+00 -0.50000000000E+03  0.50000000000E+03  0.00000000000E+00 0.  1.
         23    2    1    2    0    0  0.85166649279E+01  0.75791448805E+00 -0.49572114845E+03  0.50399013852E+03  0.90517924653E+02 0.  0.
        -11    1    3    3    0    0 -0.26154517269E+02 -0.59219332866E+01 -0.41523085907E+03  0.41609589567E+03  0.00000000000E+00 0.  1.
         11    1    3    3    0    0  0.34671182196E+02  0.66798477747E+01 -0.80490289383E+02  0.87894242849E+02  0.00000000000E+00 0. -1.
        -15    1    1    2    0    0 -0.50503820298E+01 -0.68451113907E+01  0.18417721245E+03  0.18438211742E+03  0.17770000000E+01 0.  1.
         15    1    1    2    0    0 -0.34662828981E+01  0.60871969027E+01  0.31154393600E+03  0.31162774407E+03  0.17770000000E+01 0. -1.
</event>
<event>
 7    1  0.8151806E-006  0.1000000E+04  0.7546771E-02  0.8684367E-01
        -11   -1    0    0    0    0  0.00000000000E+00  0.00000000000E+00  0.50000000000E+03  0.50000000000E+03  0.00000000000E+00 0. -1.
         11   -1    0    0    0    0 -0.00000000000E+00 -0.00000000000E+00 -0.50000000000E+03  0.50000000000E+03  0.00000000000E+00 0.  1.
         23    2    1    2    0    0  0.19937491550E+03  0.13137502706E+03 -0.24442585678E+03  0.35376542258E+03  0.91630890461E+02 0.  0.
        -11    1    3    3    0    0  0.20100564852E+03  0.10137232437E+03 -0.20753903466E+03  0.30618959778E+03  0.00000000000E+00 0.  1.
         11    1    3    3    0    0 -0.16307330190E+01  0.30002702694E+02 -0.36886822120E+02  0.47575824798E+02  0.00000000000E+00 0. -1.
        -15    1    1    2    0    0  0.40066764094E+01 -0.12273650357E+03 -0.15509843006E+03  0.19783574879E+03  0.17770000000E+01 0.  1.
         15    1    1    2    0    0 -0.20338159191E+03 -0.86385234899E+01  0.39952428683E+03  0.44839882863E+03  0.17770000000E+01 0. -1.
</event>
<event>
 7    1  0.8151806E-006  0.5041244E+03  0.7546771E-02  0.9390628E-01
        -11   -1    0    0    0    0  0.00000000000E+00  0.00000000000E+00  0.50000000000E+03  0.50000000000E+03  0.00000000000E+00 0. -1.
         11   -1    0    0    0    0 -0.00000000000E+00 -0.00000000000E+00 -0.50000000000E+03  0.50000000000E+03  0.00000000000E+00 0.  1.
         23    2    1    2    0    0  0.22462311668E+02  0.15545257358E+02 -0.49500804022E+03  0.50412438136E+03  0.91445183225E+02 0.  0.
        -11    1    3    3    0    0 -0.11178409305E+02 -0.29004554507E+02 -0.28967543884E+03  0.29133843016E+03  0.00000000000E+00 0. -1.
         11    1    3    3    0    0  0.33640720973E+02  0.44549811866E+02 -0.20533260137E+03  0.21278595121E+03  0.00000000000E+00 0.  1.
        -15    1    1    2    0    0 -0.34034576377E+00 -0.86084763725E+00  0.15390202287E+02  0.15520082130E+02  0.17770000000E+01 0. -1.
         15    1    1    2    0    0 -0.22121965904E+02 -0.14684409721E+02  0.47961783793E+03  0.48035553651E+03  0.17770000000E+01 0. -1.
</event>
<event>
 7    1  0.8151806E-006  0.6895855E+03  0.7546771E-02  0.9053620E-01
        -11   -1    0    0    0    0  0.00000000000E+00  0.00000000000E+00  0.50000000000E+03  0.50000000000E+03  0.00000000000E+00 0. -1.
         11   -1    0    0    0    0 -0.00000000000E+00 -0.00000000000E+00 -0.50000000000E+03  0.50000000000E+03  0.00000000000E+00 0.  1.
         23    2    1    2    0    0  0.20083334957E+03 -0.81090117188E+02 -0.20328510759E+03  0.31041446382E+03  0.90125817479E+02 0.  0.
        -11    1    3    3    0    0  0.32496438602E+00 -0.26065036572E+02 -0.16036889901E+02  0.30605123281E+02  0.00000000000E+00 0.  1.
         11    1    3    3    0    0  0.20050838518E+03 -0.55025080617E+02 -0.18724821769E+03  0.27980934054E+03  0.00000000000E+00 0. -1.
        -15    1    1    2    0    0  0.84319175700E+02 -0.19269890827E+03  0.20577557909E+03  0.29426066560E+03  0.17770000000E+01 0. -1.
         15    1    1    2    0    0 -0.28515252527E+03  0.27378902546E+03 -0.24904715022E+01  0.39532487059E+03  0.17770000000E+01 0.  1.
</event>
<event>
 7    1  0.8151806E-006  0.5528108E+03  0.7546771E-02  0.9288825E-01
        -11   -1    0    0    0    0  0.00000000000E+00  0.00000000000E+00  0.50000000000E+03  0.50000000000E+03  0.00000000000E+00 0. -1.
         11   -1    0    0    0    0 -0.00000000000E+00 -0.00000000000E+00 -0.50000000000E+03  0.50000000000E+03  0.00000000000E+00 0.  1.
         23    2    1    2    0    0  0.48218899875E+02 -0.16563433775E+03  0.40304180476E+03  0.44718917211E+03  0.88179720561E+02 0.  0.
        -11    1    3    3    0    0 -0.20446310858E+02 -0.85626142085E+02  0.17161357482E+03  0.19287588470E+03  0.00000000000E+00 0. -1.
         11    1    3    3    0    0  0.68665210733E+02 -0.80008195663E+02  0.23142822994E+03  0.25431328741E+03  0.00000000000E+00 0.  1.
        -15    1    1    2    0    0 -0.11035735822E+03  0.97654651876E+02 -0.84545510317E+01  0.14761373483E+03  0.17770000000E+01 0. -1.
         15    1    1    2    0    0  0.62138458349E+02  0.67979685872E+02 -0.39458725373E+03  0.40519709307E+03  0.17770000000E+01 0.  1.
</event>
<event>
 7    1  0.8151806E-006  0.1000000E+04  0.7546771E-02  0.8684367E-01
        -11   -1    0    0    0    0  0.00000000000E+00  0.00000000000E+00  0.50000000000E+03  0.50000000000E+03  0.00000000000E+00 0.  1.
         11   -1    0    0    0    0 -0.00000000000E+00 -0.00000000000E+00 -0.50000000000E+03  0.50000000000E+03  0.00000000000E+00 0. -1.
         23    2    1    2    0    0 -0.14667606795E+03 -0.26019132146E+03  0.49505722543E+02  0.31621119495E+03  0.91243139892E+02 0.  0.
        -11    1    3    3    0    0 -0.13189860931E+03 -0.17797566808E+03  0.50405534685E+01  0.22158065968E+03  0.00000000000E+00 0.  1.
         11    1    3    3    0    0 -0.14777458637E+02 -0.82215653382E+02  0.44465169075E+02  0.94630535270E+02  0.00000000000E+00 0. -1.
        -15    1    1    2    0    0  0.50881624004E+02 -0.19501281228E+03  0.50946241547E+02  0.20788846498E+03  0.17770000000E+01 0.  1.
         15    1    1    2    0    0  0.95794443944E+02  0.45520413374E+03 -0.10045196409E+03  0.47590034007E+03  0.17770000000E+01 0. -1.
</event>
<event>
 7    1  0.8151806E-006  0.1000000E+04  0.7546771E-02  0.8684367E-01
        -11   -1    0    0    0    0  0.00000000000E+00  0.00000000000E+00  0.50000000000E+03  0.50000000000E+03  0.00000000000E+00 0.  1.
         11   -1    0    0    0    0 -0.00000000000E+00 -0.00000000000E+00 -0.50000000000E+03  0.50000000000E+03  0.00000000000E+00 0. -1.
         23    2    1    2    0    0 -0.54117106303E+01 -0.52328868677E+02 -0.14315025414E+03  0.17756582878E+03  0.90939711804E+02 0.  0.
        -11    1    3    3    0    0 -0.32094814949E+02 -0.29766273636E+02 -0.17491212881E+02  0.47138632997E+02  0.00000000000E+00 0.  1.
         11    1    3    3    0    0  0.26683104319E+02 -0.22562595040E+02 -0.12565904126E+03  0.13042719579E+03  0.00000000000E+00 0. -1.
        -15    1    1    2    0    0 -0.92868079104E+02  0.21987635921E+02  0.47009464577E+03  0.47968747113E+03  0.17770000000E+01 0.  1.
         15    1    1    2    0    0  0.98279789734E+02  0.30341232755E+02 -0.32694439163E+03  0.34274670009E+03  0.17770000000E+01 0. -1.
</event>
<event>
 7    1  0.8151806E-006  0.5071880E+03  0.7546771E-02  0.9383868E-01
        -11   -1    0    0    0    0  0.00000000000E+00  0.00000000000E+00  0.50000000000E+03  0.50000000000E+03  0.00000000000E+00 0. -1.
         11   -1    0    0    0    0 -0.00000000000E+00 -0.00000000000E+00 -0.50000000000E+03  0.50000000000E+03  0.00000000000E+00 0.  1.
         23    2    1    2    0    0 -0.30054233891E+03 -0.34443447591E+03 -0.16007071858E+03  0.49281198249E+03  0.90995656308E+02 0.  0.
        -11    1    3    3    0    0 -0.19367645463E+03 -0.23728366643E+03 -0.15025612390E+03  0.34116126715E+03  0.00000000000E+00 0.  1.
         11    1    3    3    0    0 -0.10686588428E+03 -0.10715080948E+03 -0.98145946787E+01  0.15165071534E+03  0.00000000000E+00 0. -1.
        -15    1    1    2    0    0  0.52019572452E+02  0.15637402302E+03  0.21852620500E+02  0.16625151351E+03  0.17770000000E+01 0. -1.
         15    1    1    2    0    0  0.24852276646E+03  0.18806045289E+03  0.13821809808E+03  0.34093650400E+03  0.17770000000E+01 0.  1.
</event>
<event>
 7    1  0.8151806E-006  0.5685948E+03  0.7546771E-02  0.9258185E-01
        -11   -1    0    0    0    0  0.00000000000E+00  0.00000000000E+00  0.50000000000E+03  0.50000000000E+03  0.00000000000E+00 0. -1.
         11   -1    0    0    0    0 -0.00000000000E+00 -0.00000000000E+00 -0.50000000000E+03  0.50000000000E+03  0.00000000000E+00 0.  1.
         23    2    1    2    0    0  0.72455123078E+01 -0.11190870806E+02 -0.42155898443E+03  0.43140518774E+03  0.90668217253E+02 0.  0.
        -11    1    3    3    0    0  0.27734056940E+02 -0.44399335612E+02 -0.22487820547E+03  0.23089107002E+03  0.00000000000E+00 0.  1.
         11    1    3    3    0    0 -0.20488544633E+02  0.33208464806E+02 -0.19668077896E+03  0.20051411773E+03  0.00000000000E+00 0. -1.
        -15    1    1    2    0    0 -0.14090680616E+03 -0.12521614771E+03  0.17990315233E+03  0.26058034005E+03  0.17770000000E+01 0. -1.
         15    1    1    2    0    0  0.13366129386E+03  0.13640701851E+03  0.24165583210E+03  0.30801447221E+03  0.17770000000E+01 0.  1.
</event>
<event>
 7    1  0.8151806E-006  0.5035269E+03  0.7546771E-02  0.9391952E-01
        -11   -1    0    0    0    0  0.00000000000E+00  0.00000000000E+00  0.50000000000E+03  0.50000000000E+03  0.00000000000E+00 0.  1.
         11   -1    0    0    0    0 -0.00000000000E+00 -0.00000000000E+00 -0.50000000000E+03  0.50000000000E+03  0.00000000000E+00 0. -1.
         23    2    1    2    0    0 -0.15003069686E+03  0.11239034393E+02  0.47197810360E+03  0.50352690875E+03  0.90224673237E+02 0.  0.
        -11    1    3    3    0    0 -0.74933084667E+02  0.40996175340E+01  0.10612791850E+03  0.12998041824E+03  0.00000000000E+00 0. -1.
         11    1    3    3    0    0 -0.75097612195E+02  0.71394168587E+01  0.36585018510E+03  0.37354649051E+03  0.00000000000E+00 0.  1.
        -15    1    1    2    0    0  0.13587095865E+03 -0.31899297329E+01 -0.39379982415E+03  0.41659639015E+03  0.17770000000E+01 0. -1.
         15    1    1    2    0    0  0.14159738212E+02 -0.80491046598E+01 -0.78178279448E+02  0.79876701100E+02  0.17770000000E+01 0.  1.
</event>
