<event>
 7    1  0.1421899E-005  0.1929145E+03  0.7546771E-02  0.1060454E+00
        -11   -1    0    0    0    0  0.00000000000E+00  0.00000000000E+00  0.18250000000E+03  0.18250000000E+03  0.00000000000E+00 0.  1.
         11   -1    0    0    0    0 -0.00000000000E+00 -0.00000000000E+00 -0.18250000000E+03  0.18250000000E+03  0.00000000000E+00 0. -1.
         23    2    1    2    0    0 -0.34746822590E+02  0.14394308565E+03 -0.83621558551E+02  0.19291447423E+03  0.91084991786E+02 0.  0.
        -11    1    3    3    0    0 -0.76050377974E+01  0.64547945705E+02 -0.87406609778E+02  0.10892285953E+03  0.00000000000E+00 0. -1.
         11    1    3    3    0    0 -0.27141784792E+02  0.79395139944E+02  0.37850512273E+01  0.83991614708E+02  0.00000000000E+00 0.  1.
        -15    1    1    2    0    0  0.12832539069E+02 -0.16354969796E+02  0.13442583006E+02  0.24819747437E+02  0.17770000000E+01 0. -1.
         15    1    1    2    0    0  0.21914283521E+02 -0.12758811585E+03  0.70178975545E+02  0.14726577833E+03  0.17770000000E+01 0.  1.
</event>
<event>
 7    1  0.1421899E-005  0.1884880E+03  0.7546771E-02  0.1063786E+00
        -11   -1    0    0    0    0  0.00000000000E+00  0.00000000000E+00  0.18250000000E+03  0.18250000000E+03  0.00000000000E+00 0.  1.
         11   -1    0    0    0    0 -0.00000000000E+00 -0.00000000000E+00 -0.18250000000E+03  0.18250000000E+03  0.00000000000E+00 0. -1.
         23    2    1    2    0    0  0.11881881860E+03  0.97015085675E+02  0.43680093076E+02  0.18848797506E+03  0.10044863220E+03 0.  0.
        -11    1    3    3    0    0  0.36280897106E+01 -0.43179788067E+00 -0.23173734880E+02  0.23459997286E+02  0.00000000000E+00 0. -1.
         11    1    3    3    0    0  0.11519072889E+03  0.97446883556E+02  0.66853827956E+02  0.16502797778E+03  0.00000000000E+00 0.  1.
        -15    1    1    2    0    0 -0.12887435191E+03 -0.82570457272E+02 -0.42103175952E+02  0.15875236738E+03  0.17770000000E+01 0. -1.
         15    1    1    2    0    0  0.10055533313E+02 -0.14444628403E+02 -0.15769171245E+01  0.17759657557E+02  0.17770000000E+01 0.  1.
</event>
<event>
 7    1  0.1421899E-005  0.1925184E+03  0.7546771E-02  0.1060749E+00
        -11   -1    0    0    0    0  0.00000000000E+00  0.00000000000E+00  0.18250000000E+03  0.18250000000E+03  0.00000000000E+00 0.  1.
         11   -1    0    0    0    0 -0.00000000000E+00 -0.00000000000E+00 -0.18250000000E+03  0.18250000000E+03  0.00000000000E+00 0. -1.
         23    2    1    2    0    0 -0.21961993489E+02  0.12289752561E+02  0.16945819041E+03  0.19251836399E+03  0.87828668450E+02 0.  0.
        -11    1    3    3    0    0 -0.53311437542E+02 -0.81292684323E+01  0.10215024048E+03  0.11551132416E+03  0.00000000000E+00 0.  1.
         11    1    3    3    0    0  0.31349444054E+02  0.20419020994E+02  0.67307949926E+02  0.77007039834E+02  0.00000000000E+00 0. -1.
        -15    1    1    2    0    0  0.65524985186E+01 -0.66302972345E+01 -0.20257651325E+02  0.22370208861E+02  0.17770000000E+01 0.  1.
         15    1    1    2    0    0  0.15409494970E+02 -0.56594553270E+01 -0.14920053908E+03  0.15011142715E+03  0.17770000000E+01 0. -1.
</event>
<event>
 7    1  0.1421899E-005  0.1933132E+03  0.7546771E-02  0.1060159E+00
        -11   -1    0    0    0    0  0.00000000000E+00  0.00000000000E+00  0.18250000000E+03  0.18250000000E+03  0.00000000000E+00 0. -1.
         11   -1    0    0    0    0 -0.00000000000E+00 -0.00000000000E+00 -0.18250000000E+03  0.18250000000E+03  0.00000000000E+00 0.  1.
         23    2    1    2    0    0 -0.75575767669E+00  0.10902822107E+02 -0.17053723317E+03  0.19331318265E+03  0.90374753056E+02 0.  0.
        -11    1    3    3    0    0  0.22295414598E+02  0.17984718051E+02 -0.16639851363E+03  0.16884608652E+03  0.00000000000E+00 0.  1.
         11    1    3    3    0    0 -0.23051172275E+02 -0.70818959442E+01 -0.41387195354E+01  0.24467096125E+02  0.00000000000E+00 0. -1.
        -15    1    1    2    0    0  0.66646809314E+01 -0.11694403390E+02  0.12168734761E+03  0.12244241642E+03  0.17770000000E+01 0. -1.
         15    1    1    2    0    0 -0.59089232547E+01  0.79158128305E+00  0.48849885559E+02  0.49244400932E+02  0.17770000000E+01 0.  1.
</event>
<event>
 7    1  0.1421899E-005  0.1927517E+03  0.7546771E-02  0.1060575E+00
        -11   -1    0    0    0    0  0.00000000000E+00  0.00000000000E+00  0.18250000000E+03  0.18250000000E+03  0.00000000000E+00 0.  1.
         11   -1    0    0    0    0 -0.00000000000E+00 -0.00000000000E+00 -0.18250000000E+03  0.18250000000E+03  0.00000000000E+00 0. -1.
         23    2    1    2    0    0 -0.10404492499E+03  0.37085622226E+02 -0.13000849877E+03  0.19275169265E+03  0.89723550274E+02 0.  0.
        -11    1    3    3    0    0 -0.99681367160E+02  0.47279573003E+02 -0.13970971845E+03  0.17801836537E+03  0.00000000000E+00 0. -1.
         11    1    3    3    0    0 -0.43635578295E+01 -0.10193950777E+02  0.97012196743E+01  0.14733327274E+02  0.00000000000E+00 0.  1.
        -15    1    1    2    0    0  0.19646272114E+02 -0.11901657954E+02  0.15470674924E+02  0.27751125772E+02  0.17770000000E+01 0. -1.
         15    1    1    2    0    0  0.84398652876E+02 -0.25183964272E+02  0.11453782385E+03  0.14449718158E+03  0.17770000000E+01 0.  1.
</event>
<event>
 7    1  0.1421899E-005  0.1886864E+03  0.7546771E-02  0.1063634E+00
        -11   -1    0    0    0    0  0.00000000000E+00  0.00000000000E+00  0.18250000000E+03  0.18250000000E+03  0.00000000000E+00 0.  1.
         11   -1    0    0    0    0 -0.00000000000E+00 -0.00000000000E+00 -0.18250000000E+03  0.18250000000E+03  0.00000000000E+00 0. -1.
         23    2    1    2    0    0 -0.21632129611E+02  0.67894576983E+02  0.15091245998E+03  0.18868643942E+03  0.88036238147E+02 0.  0.
        -11    1    3    3    0    0 -0.10134800585E+02  0.79803824226E+02  0.71691559416E+02  0.10775455552E+03  0.00000000000E+00 0. -1.
         11    1    3    3    0    0 -0.11497329025E+02 -0.11909247242E+02  0.79220900568E+02  0.80931883899E+02  0.00000000000E+00 0.  1.
        -15    1    1    2    0    0  0.39390545961E+02 -0.59379439494E+02 -0.12170200342E+03  0.14103924387E+03  0.17770000000E+01 0. -1.
         15    1    1    2    0    0 -0.17758416350E+02 -0.85151374895E+01 -0.29210456560E+02  0.35274316707E+02  0.17770000000E+01 0.  1.
</event>
<event>
 7    1  0.1421899E-005  0.1939140E+03  0.7546771E-02  0.1059716E+00
        -11   -1    0    0    0    0  0.00000000000E+00  0.00000000000E+00  0.18250000000E+03  0.18250000000E+03  0.00000000000E+00 0. -1.
         11   -1    0    0    0    0 -0.00000000000E+00 -0.00000000000E+00 -0.18250000000E+03  0.18250000000E+03  0.00000000000E+00 0.  1.
         23    2    1    2    0    0 -0.43579264459E+02 -0.57977438387E+02 -0.15432562998E+03  0.19391397988E+03  0.92334694823E+02 0.  0.
        -11    1    3    3    0    0 -0.58412059204E+01  0.17407600469E+02 -0.78198340912E+02  0.80325119123E+02  0.00000000000E+00 0.  1.
         11    1    3    3    0    0 -0.37738058538E+02 -0.75385038856E+02 -0.76127289073E+02  0.11358886075E+03  0.00000000000E+00 0. -1.
        -15    1    1    2    0    0  0.32514921818E+02  0.48666636461E+02  0.11306001348E+03  0.12732394128E+03  0.17770000000E+01 0. -1.
         15    1    1    2    0    0  0.11064342640E+02  0.93108019263E+01  0.41265616502E+02  0.43762078845E+02  0.17770000000E+01 0.  1.
</event>
<event>
 7    1  0.1421899E-005  0.1929459E+03  0.7546771E-02  0.1060431E+00
        -11   -1    0    0    0    0  0.00000000000E+00  0.00000000000E+00  0.18250000000E+03  0.18250000000E+03  0.00000000000E+00 0. -1.
         11   -1    0    0    0    0 -0.00000000000E+00 -0.00000000000E+00 -0.18250000000E+03  0.18250000000E+03  0.00000000000E+00 0.  1.
         23    2    1    2    0    0 -0.37469117629E+02 -0.57473217535E+02 -0.15566934621E+03  0.19294587537E+03  0.91038782730E+02 0.  0.
        -11    1    3    3    0    0 -0.35614023660E+02 -0.79979672731E+02 -0.14115204351E+03  0.16609938627E+03  0.00000000000E+00 0.  1.
         11    1    3    3    0    0 -0.18550939698E+01  0.22506455196E+02 -0.14517302699E+02  0.26846489096E+02  0.00000000000E+00 0. -1.
        -15    1    1    2    0    0  0.10488160362E+02  0.80512019928E+01  0.55983536448E+02  0.57551172390E+02  0.17770000000E+01 0.  1.
         15    1    1    2    0    0  0.26980957268E+02  0.49422015542E+02  0.99685809764E+02  0.11450295224E+03  0.17770000000E+01 0. -1.
</event>
<event>
 7    1  0.1421899E-005  0.1937216E+03  0.7546771E-02  0.1059858E+00
        -11   -1    0    0    0    0  0.00000000000E+00  0.00000000000E+00  0.18250000000E+03  0.18250000000E+03  0.00000000000E+00 0.  1.
         11   -1    0    0    0    0 -0.00000000000E+00 -0.00000000000E+00 -0.18250000000E+03  0.18250000000E+03  0.00000000000E+00 0. -1.
         23    2    1    2    0    0  0.28055783300E+02 -0.36918753801E+02 -0.16446986499E+03  0.19372155805E+03  0.91255598214E+02 0.  0.
        -11    1    3    3    0    0  0.13031335641E+02 -0.24316936095E+02  0.49722824073E+00  0.27593048500E+02  0.00000000000E+00 0.  1.
         11    1    3    3    0    0  0.15024447660E+02 -0.12601817706E+02 -0.16496709323E+03  0.16612850955E+03  0.00000000000E+00 0. -1.
        -15    1    1    2    0    0 -0.18637479864E+02  0.31661577358E+02  0.12200981517E+03  0.12743376265E+03  0.17770000000E+01 0.  1.
         15    1    1    2    0    0 -0.94183034363E+01  0.52571764425E+01  0.42460049816E+02  0.43844679302E+02  0.17770000000E+01 0. -1.
</event>
<event>
 7    1  0.1421899E-005  0.1915731E+03  0.7546771E-02  0.1061454E+00
        -11   -1    0    0    0    0  0.00000000000E+00  0.00000000000E+00  0.18250000000E+03  0.18250000000E+03  0.00000000000E+00 0.  1.
         11   -1    0    0    0    0 -0.00000000000E+00 -0.00000000000E+00 -0.18250000000E+03  0.18250000000E+03  0.00000000000E+00 0. -1.
         23    2    1    2    0    0  0.26029468077E+02  0.22728432527E+02  0.16560833920E+03  0.19157311175E+03  0.89888933003E+02 0.  0.
        -11    1    3    3    0    0  0.11716089383E+02 -0.24459566932E+02  0.10956965630E+02  0.29250508727E+02  0.00000000000E+00 0. -1.
         11    1    3    3    0    0  0.14313378693E+02  0.47187999459E+02  0.15465137357E+03  0.16232260302E+03  0.00000000000E+00 0.  1.
        -15    1    1    2    0    0 -0.16526963786E+02  0.24297423991E+01 -0.24113879620E+02  0.29388451804E+02  0.17770000000E+01 0.  1.
         15    1    1    2    0    0 -0.95025042914E+01 -0.25158174926E+02 -0.14149445958E+03  0.14403843645E+03  0.17770000000E+01 0. -1.
</event>
<event>
 7    1  0.1421899E-005  0.1901477E+03  0.7546771E-02  0.1062525E+00
        -11   -1    0    0    0    0  0.00000000000E+00  0.00000000000E+00  0.18250000000E+03  0.18250000000E+03  0.00000000000E+00 0. -1.
         11   -1    0    0    0    0 -0.00000000000E+00 -0.00000000000E+00 -0.18250000000E+03  0.18250000000E+03  0.00000000000E+00 0.  1.
         23    2    1    2    0    0  0.59874083979E+02  0.25717442799E+02 -0.15365057668E+03  0.19014772148E+03  0.91111818512E+02 0.  0.
        -11    1    3    3    0    0  0.29104720760E+02  0.14992894122E+02  0.34623383629E+00  0.32741281627E+02  0.00000000000E+00 0. -1.
         11    1    3    3    0    0  0.30769363219E+02  0.10724548677E+02 -0.15399681052E+03  0.15740643985E+03  0.00000000000E+00 0.  1.
        -15    1    1    2    0    0 -0.40707248610E+02  0.10794086817E+02  0.75324203937E+02  0.86316196785E+02  0.17770000000E+01 0.  1.
         15    1    1    2    0    0 -0.19166835369E+02 -0.36511529616E+02  0.78326372744E+02  0.88536081736E+02  0.17770000000E+01 0. -1.
</event>
<event>
 7    1  0.1421899E-005  0.1854860E+03  0.7546771E-02  0.1066103E+00
        -11   -1    0    0    0    0  0.00000000000E+00  0.00000000000E+00  0.18250000000E+03  0.18250000000E+03  0.00000000000E+00 0.  1.
         11   -1    0    0    0    0 -0.00000000000E+00 -0.00000000000E+00 -0.18250000000E+03  0.18250000000E+03  0.00000000000E+00 0. -1.
         23    2    1    2    0    0  0.13168075210E+03 -0.41565040849E+02 -0.80802209241E+02  0.18548595484E+03  0.93853978760E+02 0.  0.
        -11    1    3    3    0    0  0.79193021816E+02 -0.70942492946E+02 -0.44722017729E+02  0.11534483465E+03  0.00000000000E+00 0. -1.
         11    1    3    3    0    0  0.52487730285E+02  0.29377452097E+02 -0.36080191512E+02  0.70141120192E+02  0.00000000000E+00 0.  1.
        -15    1    1    2    0    0 -0.32014940509E+02 -0.33643445381E+01 -0.13666208527E+02  0.35017113166E+02  0.17770000000E+01 0. -1.
         15    1    1    2    0    0 -0.99665811592E+02  0.44929385387E+02  0.94468417768E+02  0.14449693200E+03  0.17770000000E+01 0.  1.
</event>
<event>
 7    1  0.1421899E-005  0.1937144E+03  0.7546771E-02  0.1059863E+00
        -11   -1    0    0    0    0  0.00000000000E+00  0.00000000000E+00  0.18250000000E+03  0.18250000000E+03  0.00000000000E+00 0. -1.
         11   -1    0    0    0    0 -0.00000000000E+00 -0.00000000000E+00 -0.18250000000E+03  0.18250000000E+03  0.00000000000E+00 0.  1.
         23    2    1    2    0    0  0.17029008184E+01  0.90044849935E+00 -0.17110609612E+03  0.19371438327E+03  0.90797882558E+02 0.  0.
        -11    1    3    3    0    0  0.24449846394E+02  0.36119809899E+02 -0.54529736441E+02  0.69827844104E+02  0.00000000000E+00 0. -1.
         11    1    3    3    0    0 -0.22746945575E+02 -0.35219361399E+02 -0.11657635968E+03  0.12388653917E+03  0.00000000000E+00 0.  1.
        -15    1    1    2    0    0 -0.16898915709E+00 -0.32042649281E+01  0.49780835368E+02  0.49915780771E+02  0.17770000000E+01 0.  1.
         15    1    1    2    0    0 -0.15339116613E+01  0.23038164287E+01  0.12132526075E+03  0.12136983596E+03  0.17770000000E+01 0. -1.
</event>
<event>
 7    1  0.1663085E-005  0.1926806E+03  0.7546771E-02  0.1060628E+00
        -11   -1    0    0    0    0  0.00000000000E+00  0.00000000000E+00  0.18250000000E+03  0.18250000000E+03  0.00000000000E+00 0. -1.
         11   -1    0    0    0    0 -0.00000000000E+00 -0.00000000000E+00 -0.18250000000E+03  0.18250000000E+03  0.00000000000E+00 0. -1.
         23    2    1    2    0    0  0.22420263614E+02 -0.11375593719E+02  0.16990246486E+03  0.19268056773E+03  0.87332017380E+02 0.  0.
        -11    1    3    3    0    0  0.32093884022E+02 -0.11813491086E+02  0.17725375373E+03  0.18052276637E+03  0.00000000000E+00 0. -1.
         11    1    3    3    0    0 -0.96736204079E+01  0.43789736641E+00 -0.73512888702E+01  0.12157801362E+02  0.00000000000E+00 0. -1.
        -15    1    1    2    0    0 -0.13792258608E+02  0.10771166702E+02 -0.76293976691E+02  0.78295421564E+02  0.17770000000E+01 0.  1.
         15    1    1    2    0    0 -0.86280050063E+01  0.60442701709E+00 -0.93608488174E+02  0.94024010708E+02  0.17770000000E+01 0. -1.
</event>
<event>
 7    1  0.1421899E-005  0.1910058E+03  0.7546771E-02  0.1061879E+00
        -11   -1    0    0    0    0  0.00000000000E+00  0.00000000000E+00  0.18250000000E+03  0.18250000000E+03  0.00000000000E+00 0.  1.
         11   -1    0    0    0    0 -0.00000000000E+00 -0.00000000000E+00 -0.18250000000E+03  0.18250000000E+03  0.00000000000E+00 0. -1.
         23    2    1    2    0    0  0.30264228658E+02  0.14453946821E+03  0.19332137939E+02  0.17399420058E+03  0.89959262289E+02 0.  0.
        -11    1    3    3    0    0  0.31060111173E+02  0.23885015522E+02  0.34730282636E+02  0.52358542804E+02  0.00000000000E+00 0. -1.
         11    1    3    3    0    0 -0.79588251561E+00  0.12065445269E+03 -0.15398144697E+02  0.12163565778E+03  0.00000000000E+00 0.  1.
        -15    1    1    2    0    0  0.16272708126E+02  0.15955916414E+02 -0.37565546664E+01  0.23165960596E+02  0.17770000000E+01 0.  1.
         15    1    1    2    0    0 -0.46536936784E+02 -0.16049538463E+03 -0.15575583273E+02  0.16783983882E+03  0.17770000000E+01 0. -1.
</event>
<event>
 7    1  0.1421899E-005  0.1883738E+03  0.7546771E-02  0.1063873E+00
        -11   -1    0    0    0    0  0.00000000000E+00  0.00000000000E+00  0.18250000000E+03  0.18250000000E+03  0.00000000000E+00 0.  1.
         11   -1    0    0    0    0 -0.00000000000E+00 -0.00000000000E+00 -0.18250000000E+03  0.18250000000E+03  0.00000000000E+00 0. -1.
         23    2    1    2    0    0 -0.15415391354E+03  0.43962756370E+02  0.38095642242E+02  0.18837383792E+03  0.91308662505E+02 0.  0.
        -11    1    3    3    0    0 -0.10491839253E+02  0.33536670701E+02  0.26222799187E+02  0.43845434994E+02  0.00000000000E+00 0.  1.
         11    1    3    3    0    0 -0.14366207429E+03  0.10426085669E+02  0.11872843055E+02  0.14452840293E+03  0.00000000000E+00 0. -1.
        -15    1    1    2    0    0  0.89813718920E+02  0.66783276487E+01 -0.13294649800E+02  0.91054981241E+02  0.17770000000E+01 0.  1.
         15    1    1    2    0    0  0.64340194621E+02 -0.50641084019E+02 -0.24800992442E+02  0.85571180835E+02  0.17770000000E+01 0. -1.
</event>
<event>
 7    1  0.1421899E-005  0.1875539E+03  0.7546771E-02  0.1064502E+00
        -11   -1    0    0    0    0  0.00000000000E+00  0.00000000000E+00  0.18250000000E+03  0.18250000000E+03  0.00000000000E+00 0.  1.
         11   -1    0    0    0    0 -0.00000000000E+00 -0.00000000000E+00 -0.18250000000E+03  0.18250000000E+03  0.00000000000E+00 0. -1.
         23    2    1    2    0    0 -0.18501276461E+02 -0.26954085459E+02 -0.14794954378E+03  0.17744606187E+03  0.92353762316E+02 0.  0.
        -11    1    3    3    0    0 -0.50703137348E+02 -0.35384938058E+02 -0.11523148425E+03  0.13077154484E+03  0.00000000000E+00 0. -1.
         11    1    3    3    0    0  0.32201860887E+02  0.84308525989E+01 -0.32718059536E+02  0.46674517029E+02  0.00000000000E+00 0.  1.
        -15    1    1    2    0    0  0.61296879642E+02  0.19531990561E+02  0.11911432947E+03  0.13538902217E+03  0.17770000000E+01 0.  1.
         15    1    1    2    0    0 -0.42795603181E+02  0.74220948972E+01  0.28835214313E+02  0.52164915966E+02  0.17770000000E+01 0. -1.
</event>
<event>
 7    1  0.1421899E-005  0.2446834E+03  0.7546771E-02  0.1027524E+00
        -11   -1    0    0    0    0  0.00000000000E+00  0.00000000000E+00  0.18250000000E+03  0.18250000000E+03  0.00000000000E+00 0. -1.
         11   -1    0    0    0    0 -0.00000000000E+00 -0.00000000000E+00 -0.18250000000E+03  0.18250000000E+03  0.00000000000E+00 0.  1.
         23    2    1    2    0    0  0.71794284615E+02  0.90874935205E+01 -0.42496616964E+02  0.12031664870E+03  0.86215611464E+02 0.  0.
        -11    1    3    3    0    0 -0.16437204104E+02  0.15465906334E+02 -0.96303325797E+00  0.22589895319E+02  0.00000000000E+00 0. -1.
         11    1    3    3    0    0  0.88231488719E+02 -0.63784128131E+01 -0.41533583706E+02  0.97726753384E+02  0.00000000000E+00 0.  1.
        -15    1    1    2    0    0 -0.58595345357E+01  0.96253632650E+02  0.67738226447E+02  0.11785890291E+03  0.17770000000E+01 0. -1.
         15    1    1    2    0    0 -0.65934750079E+02 -0.10534112617E+03 -0.25241609484E+02  0.12682444839E+03  0.17770000000E+01 0.  1.
</event>
<event>
 7    1  0.1421899E-005  0.1932989E+03  0.7546771E-02  0.1060170E+00
        -11   -1    0    0    0    0  0.00000000000E+00  0.00000000000E+00  0.18250000000E+03  0.18250000000E+03  0.00000000000E+00 0. -1.
         11   -1    0    0    0    0 -0.00000000000E+00 -0.00000000000E+00 -0.18250000000E+03  0.18250000000E+03  0.00000000000E+00 0.  1.
         23    2    1    2    0    0  0.13550147516E+02 -0.31030690482E+02 -0.16803438789E+03  0.19329887273E+03  0.89344213234E+02 0.  0.
        -11    1    3    3    0    0 -0.19269914361E+02  0.14399136589E+02 -0.10788599263E+02  0.26363964194E+02  0.00000000000E+00 0. -1.
         11    1    3    3    0    0  0.32820061877E+02 -0.45429827071E+02 -0.15724578862E+03  0.16693490854E+03  0.00000000000E+00 0.  1.
        -15    1    1    2    0    0  0.40532462328E+00  0.49856692919E+01  0.35989964141E+02  0.36379340761E+02  0.17770000000E+01 0.  1.
         15    1    1    2    0    0 -0.13955472139E+02  0.26045021190E+02  0.13204442375E+03  0.13532178650E+03  0.17770000000E+01 0. -1.
</event>
<event>
 7    1  0.1421899E-005  0.3650000E+03  0.7546771E-02  0.9765871E-01
        -11   -1    0    0    0    0  0.00000000000E+00  0.00000000000E+00  0.18250000000E+03  0.18250000000E+03  0.00000000000E+00 0. -1.
         11   -1    0    0    0    0 -0.00000000000E+00 -0.00000000000E+00 -0.18250000000E+03  0.18250000000E+03  0.00000000000E+00 0.  1.
         23    2    1    2    0    0  0.53232651213E+02 -0.90598157553E+02  0.26215247035E+02  0.14120455654E+03  0.90607650350E+02 0.  0.
        -11    1    3    3    0    0  0.25651479643E+02 -0.96434911717E+02 -0.40145969804E+01  0.99868952106E+02  0.00000000000E+00 0. -1.
         11    1    3    3    0    0  0.27581171570E+02  0.58367541642E+01  0.30229844015E+02  0.41335604429E+02  0.00000000000E+00 0.  1.
        -15    1    1    2    0    0 -0.87568001216E+02  0.12434547402E+03  0.24261095011E+02  0.15401853852E+03  0.17770000000E+01 0. -1.
         15    1    1    2    0    0  0.34335350002E+02 -0.33747316470E+02 -0.50476342046E+02  0.69776904947E+02  0.17770000000E+01 0.  1.
</event>
<event>
 7    1  0.1421899E-005  0.1929770E+03  0.7546771E-02  0.1060408E+00
        -11   -1    0    0    0    0  0.00000000000E+00  0.00000000000E+00  0.18250000000E+03  0.18250000000E+03  0.00000000000E+00 0. -1.
         11   -1    0    0    0    0 -0.00000000000E+00 -0.00000000000E+00 -0.18250000000E+03  0.18250000000E+03  0.00000000000E+00 0.  1.
         23    2    1    2    0    0  0.37855096752E+01 -0.12984348668E+02 -0.17133239715E+03  0.19297702161E+03  0.87763415850E+02 0.  0.
        -11    1    3    3    0    0  0.20566342866E+01 -0.37566813581E+02 -0.16250048826E+03  0.16679899254E+03  0.00000000000E+00 0.  1.
         11    1    3    3    0    0  0.17288753885E+01  0.24582464913E+02 -0.88319088906E+01  0.26178029070E+02  0.00000000000E+00 0. -1.
        -15    1    1    2    0    0 -0.11632854686E+01  0.71341042357E+01  0.55121874012E+02  0.55622184422E+02  0.17770000000E+01 0. -1.
         15    1    1    2    0    0 -0.26222242065E+01  0.58502444325E+01  0.11621052314E+03  0.11640079397E+03  0.17770000000E+01 0.  1.
</event>
<event>
 7    1  0.1975174E-005  0.1934558E+03  0.7546771E-02  0.1060054E+00
        -11   -1    0    0    0    0  0.00000000000E+00  0.00000000000E+00  0.18250000000E+03  0.18250000000E+03  0.00000000000E+00 0.  1.
         11   -1    0    0    0    0 -0.00000000000E+00 -0.00000000000E+00 -0.18250000000E+03  0.18250000000E+03  0.00000000000E+00 0. -1.
         23    2    1    2    0    0 -0.14334463246E+02 -0.46514525492E+00  0.17086789800E+03  0.19345583347E+03  0.89574704796E+02 0.  0.
        -11    1    3    3    0    0 -0.14586015132E+00  0.30378862949E+02  0.14901825392E+02  0.33837272190E+02  0.00000000000E+00 0. -1.
         11    1    3    3    0    0 -0.14188603095E+02 -0.30844008204E+02  0.15596607261E+03  0.15961856128E+03  0.00000000000E+00 0.  1.
        -15    1    1    2    0    0  0.97737326749E+01  0.17881689906E+01 -0.12030276067E+03  0.12072545445E+03  0.17770000000E+01 0.  1.
         15    1    1    2    0    0  0.45607305713E+01 -0.13230237356E+01 -0.50565137330E+02  0.50818712079E+02  0.17770000000E+01 0. -1.
</event>
<event>
 7    1  0.1421899E-005  0.1930966E+03  0.7546771E-02  0.1060319E+00
        -11   -1    0    0    0    0  0.00000000000E+00  0.00000000000E+00  0.18250000000E+03  0.18250000000E+03  0.00000000000E+00 0.  1.
         11   -1    0    0    0    0 -0.00000000000E+00 -0.00000000000E+00 -0.18250000000E+03  0.18250000000E+03  0.00000000000E+00 0. -1.
         23    2    1    2    0    0  0.14007783687E+01  0.62197660864E+01 -0.17027596805E+03  0.19309657528E+03  0.90839057779E+02 0.  0.
        -11    1    3    3    0    0  0.27178301837E+02 -0.10724880432E+02 -0.15668735104E+03  0.15938823397E+03  0.00000000000E+00 0. -1.
         11    1    3    3    0    0 -0.25777523468E+02  0.16944646519E+02 -0.13588617014E+02  0.33708341314E+02  0.00000000000E+00 0.  1.
        -15    1    1    2    0    0  0.85356379705E+01 -0.84279866121E+01  0.11760409137E+03  0.11822761145E+03  0.17770000000E+01 0.  1.
         15    1    1    2    0    0 -0.99364163392E+01  0.22082205257E+01  0.52671876682E+02  0.53675813266E+02  0.17770000000E+01 0. -1.
</event>
<event>
 7    1  0.1421899E-005  0.1934674E+03  0.7546771E-02  0.1060045E+00
        -11   -1    0    0    0    0  0.00000000000E+00  0.00000000000E+00  0.18250000000E+03  0.18250000000E+03  0.00000000000E+00 0. -1.
         11   -1    0    0    0    0 -0.00000000000E+00 -0.00000000000E+00 -0.18250000000E+03  0.18250000000E+03  0.00000000000E+00 0.  1.
         23    2    1    2    0    0 -0.26477925259E+00 -0.40143815726E+01 -0.17137339428E+03  0.19346737074E+03  0.89691682477E+02 0.  0.
        -11    1    3    3    0    0 -0.22319206824E+01 -0.25502079101E+02 -0.16992366087E+03  0.17184117094E+03  0.00000000000E+00 0.  1.
         11    1    3    3    0    0  0.19671414298E+01  0.21487697529E+02 -0.14497334101E+01  0.21626199792E+02  0.00000000000E+00 0. -1.
        -15    1    1    2    0    0  0.13694907753E+01  0.39970217092E+00  0.10679766123E+03  0.10682197078E+03  0.17770000000E+01 0. -1.
         15    1    1    2    0    0 -0.11047115227E+01  0.36146794016E+01  0.64575733044E+02  0.64710658488E+02  0.17770000000E+01 0. -1.
</event>
<event>
 7    1  0.1421899E-005  0.1870795E+03  0.7546771E-02  0.1064867E+00
        -11   -1    0    0    0    0  0.00000000000E+00  0.00000000000E+00  0.18250000000E+03  0.18250000000E+03  0.00000000000E+00 0.  1.
         11   -1    0    0    0    0 -0.00000000000E+00 -0.00000000000E+00 -0.18250000000E+03  0.18250000000E+03  0.00000000000E+00 0.  1.
         23    2    1    2    0    0  0.74091254142E+02 -0.39112770954E+02  0.14035673462E+03  0.18707954337E+03  0.90991317183E+02 0.  0.
        -11    1    3    3    0    0  0.70504481342E+01 -0.53323317164E+02  0.75692410059E+02  0.92857018651E+02  0.00000000000E+00 0.  1.
         11    1    3    3    0    0  0.67040806008E+02  0.14210546209E+02  0.64664324563E+02  0.94222524722E+02  0.00000000000E+00 0.  1.
        -15    1    1    2    0    0 -0.50207148796E+02  0.46042902763E+02 -0.13666935116E+03  0.15271665253E+03  0.17770000000E+01 0.  1.
         15    1    1    2    0    0 -0.23884105346E+02 -0.69301318087E+01 -0.36873834609E+01  0.25203804095E+02  0.17770000000E+01 0. -1.
</event>
<event>
 7    1  0.1421899E-005  0.1955321E+03  0.7546771E-02  0.1058530E+00
        -11   -1    0    0    0    0  0.00000000000E+00  0.00000000000E+00  0.18250000000E+03  0.18250000000E+03  0.00000000000E+00 0. -1.
         11   -1    0    0    0    0 -0.00000000000E+00 -0.00000000000E+00 -0.18250000000E+03  0.18250000000E+03  0.00000000000E+00 0.  1.
         23    2    1    2    0    0  0.19344668620E+02 -0.34638982058E+02 -0.13616001927E+03  0.16946787867E+03  0.92767105015E+02 0.  0.
        -11    1    3    3    0    0 -0.95338769248E+01 -0.26428941405E+02 -0.13658216471E+03  0.13944200038E+03  0.00000000000E+00 0.  1.
         11    1    3    3    0    0  0.28878545545E+02 -0.82100406532E+01  0.42214544503E+00  0.30025878290E+02  0.00000000000E+00 0. -1.
        -15    1    1    2    0    0 -0.15398800549E+01  0.73740739910E+02  0.13339946084E+03  0.15244225738E+03  0.17770000000E+01 0. -1.
         15    1    1    2    0    0 -0.17804788565E+02 -0.39101757852E+02  0.27605584253E+01  0.43089863945E+02  0.17770000000E+01 0.  1.
</event>
<event>
 7    1  0.1421899E-005  0.1912331E+03  0.7546771E-02  0.1061708E+00
        -11   -1    0    0    0    0  0.00000000000E+00  0.00000000000E+00  0.18250000000E+03  0.18250000000E+03  0.00000000000E+00 0.  1.
         11   -1    0    0    0    0 -0.00000000000E+00 -0.00000000000E+00 -0.18250000000E+03  0.18250000000E+03  0.00000000000E+00 0. -1.
         23    2    1    2    0    0 -0.66040488219E+02 -0.14888724559E+03 -0.32233541083E+02  0.19123312239E+03  0.94880703741E+02 0.  0.
        -11    1    3    3    0    0 -0.26819104896E+01 -0.11626318225E+03 -0.29200272601E+02  0.11990402875E+03  0.00000000000E+00 0. -1.
         11    1    3    3    0    0 -0.63358577729E+02 -0.32624063339E+02 -0.30332684818E+01  0.71329093632E+02  0.00000000000E+00 0.  1.
        -15    1    1    2    0    0  0.52015373991E+01 -0.31618073982E+01 -0.15777874065E+01  0.65345359007E+01  0.17770000000E+01 0. -1.
         15    1    1    2    0    0  0.60838950820E+02  0.15204905299E+03  0.33811328489E+02  0.16723234171E+03  0.17770000000E+01 0.  1.
</event>
<event>
 7    1  0.1421899E-005  0.1932417E+03  0.7546771E-02  0.1060212E+00
        -11   -1    0    0    0    0  0.00000000000E+00  0.00000000000E+00  0.18250000000E+03  0.18250000000E+03  0.00000000000E+00 0.  1.
         11   -1    0    0    0    0 -0.00000000000E+00 -0.00000000000E+00 -0.18250000000E+03  0.18250000000E+03  0.00000000000E+00 0. -1.
         23    2    1    2    0    0 -0.52797159990E+02  0.11991787343E+01 -0.16128199876E+03  0.19324165530E+03  0.92420106506E+02 0.  0.
        -11    1    3    3    0    0  0.98459187498E+00 -0.13427113812E+02  0.75584549612E+01  0.15439787818E+02  0.00000000000E+00 0.  1.
         11    1    3    3    0    0 -0.53781751865E+02  0.14626292546E+02 -0.16884045372E+03  0.17780186748E+03  0.00000000000E+00 0. -1.
        -15    1    1    2    0    0  0.53824058065E+02 -0.36073699471E+01  0.15884501521E+03  0.16776453418E+03  0.17770000000E+01 0.  1.
         15    1    1    2    0    0 -0.10268980753E+01  0.24081912128E+01  0.24369835572E+01  0.39938105154E+01  0.17770000000E+01 0. -1.
</event>
<event>
 7    1  0.1421899E-005  0.1938765E+03  0.7546771E-02  0.1059743E+00
        -11   -1    0    0    0    0  0.00000000000E+00  0.00000000000E+00  0.18250000000E+03  0.18250000000E+03  0.00000000000E+00 0.  1.
         11   -1    0    0    0    0 -0.00000000000E+00 -0.00000000000E+00 -0.18250000000E+03  0.18250000000E+03  0.00000000000E+00 0. -1.
         23    2    1    2    0    0 -0.22737436703E+02  0.70963217630E+01 -0.16933282725E+03  0.19387649541E+03  0.91362685352E+02 0.  0.
        -11    1    3    3    0    0 -0.34347129359E+02  0.36525789932E+02 -0.51520502572E+02  0.71890338785E+02  0.00000000000E+00 0. -1.
         11    1    3    3    0    0  0.11609692656E+02 -0.29429468169E+02 -0.11781232468E+03  0.12198615662E+03  0.00000000000E+00 0.  1.
        -15    1    1    2    0    0  0.19059388277E+02 -0.44351294292E+01  0.14293726699E+03  0.14428149804E+03  0.17770000000E+01 0.  1.
         15    1    1    2    0    0  0.36780484263E+01 -0.26611923338E+01  0.26395560267E+02  0.26842006551E+02  0.17770000000E+01 0.  1.
</event>
<event>
 7    1  0.1421899E-005  0.1910445E+03  0.7546771E-02  0.1061850E+00
        -11   -1    0    0    0    0  0.00000000000E+00  0.00000000000E+00  0.18250000000E+03  0.18250000000E+03  0.00000000000E+00 0.  1.
         11   -1    0    0    0    0 -0.00000000000E+00 -0.00000000000E+00 -0.18250000000E+03  0.18250000000E+03  0.00000000000E+00 0. -1.
         23    2    1    2    0    0  0.11093269111E+03 -0.28137247627E+02 -0.12372053846E+03  0.19104448776E+03  0.89963648244E+02 0.  0.
        -11    1    3    3    0    0  0.81544813764E+02  0.20258218678E+02 -0.48905437861E+02  0.97219822712E+02  0.00000000000E+00 0.  1.
         11    1    3    3    0    0  0.29387877349E+02 -0.48395466305E+02 -0.74815100595E+02  0.93824665046E+02  0.00000000000E+00 0. -1.
        -15    1    1    2    0    0 -0.38558506574E+02 -0.10430160227E+02  0.35179235055E+02  0.53256764638E+02  0.17770000000E+01 0. -1.
         15    1    1    2    0    0 -0.72374184539E+02  0.38567407854E+02  0.88541303401E+02  0.12069874760E+03  0.17770000000E+01 0.  1.
</event>
<event>
 7    1  0.1421899E-005  0.1937604E+03  0.7546771E-02  0.1059829E+00
        -11   -1    0    0    0    0  0.00000000000E+00  0.00000000000E+00  0.18250000000E+03  0.18250000000E+03  0.00000000000E+00 0. -1.
         11   -1    0    0    0    0 -0.00000000000E+00 -0.00000000000E+00 -0.18250000000E+03  0.18250000000E+03  0.00000000000E+00 0.  1.
         23    2    1    2    0    0 -0.23981652097E+02 -0.39740419029E+01 -0.16937058543E+03  0.19376040377E+03  0.90916369336E+02 0.  0.
        -11    1    3    3    0    0 -0.40372690109E+02 -0.37140397527E+02 -0.79667353501E+02  0.96727712931E+02  0.00000000000E+00 0.  1.
         11    1    3    3    0    0  0.16391038012E+02  0.33166355624E+02 -0.89703231929E+02  0.97032690837E+02  0.00000000000E+00 0. -1.
        -15    1    1    2    0    0  0.45326073252E+01 -0.12109784127E+01  0.35389986994E+02  0.35743809343E+02  0.17770000000E+01 0. -1.
         15    1    1    2    0    0  0.19449044771E+02  0.51850203156E+01  0.13398059844E+03  0.13549578689E+03  0.17770000000E+01 0. -1.
</event>
<event>
 7    1  0.1421899E-005  0.1848383E+03  0.7546771E-02  0.1066609E+00
        -11   -1    0    0    0    0  0.00000000000E+00  0.00000000000E+00  0.18250000000E+03  0.18250000000E+03  0.00000000000E+00 0.  1.
         11   -1    0    0    0    0 -0.00000000000E+00 -0.00000000000E+00 -0.18250000000E+03  0.18250000000E+03  0.00000000000E+00 0. -1.
         23    2    1    2    0    0 -0.14721452003E+02 -0.56170759512E+02 -0.14366095398E+03  0.18016174778E+03  0.91912514342E+02 0.  0.
        -11    1    3    3    0    0 -0.53798550195E+02 -0.35002770106E+02 -0.81188232681E+02  0.10349399521E+03  0.00000000000E+00 0. -1.
         11    1    3    3    0    0  0.39077098191E+02 -0.21167989407E+02 -0.62472721296E+02  0.76667752574E+02  0.00000000000E+00 0.  1.
        -15    1    1    2    0    0 -0.17747108519E+02  0.74879819867E+02  0.80524201004E+02  0.11139682204E+03  0.17770000000E+01 0.  1.
         15    1    1    2    0    0  0.32468560522E+02 -0.18709060355E+02  0.63136752973E+02  0.73441430179E+02  0.17770000000E+01 0. -1.
</event>
<event>
 7    1  0.1421899E-005  0.1945214E+03  0.7546771E-02  0.1059269E+00
        -11   -1    0    0    0    0  0.00000000000E+00  0.00000000000E+00  0.18250000000E+03  0.18250000000E+03  0.00000000000E+00 0. -1.
         11   -1    0    0    0    0 -0.00000000000E+00 -0.00000000000E+00 -0.18250000000E+03  0.18250000000E+03  0.00000000000E+00 0.  1.
         23    2    1    2    0    0 -0.11560452163E+02  0.30827770319E+01 -0.16981090220E+03  0.19452137083E+03  0.94125839359E+02 0.  0.
        -11    1    3    3    0    0  0.63422437600E+01 -0.33679992244E+02 -0.13942973566E+03  0.14358000251E+03  0.00000000000E+00 0.  1.
         11    1    3    3    0    0 -0.17902695923E+02  0.36762769275E+02 -0.30381166534E+02  0.50941368318E+02  0.00000000000E+00 0. -1.
        -15    1    1    2    0    0  0.72560812836E+01 -0.20111729170E+01  0.14532726704E+03  0.14553304713E+03  0.17770000000E+01 0. -1.
         15    1    1    2    0    0  0.43043708798E+01 -0.10716041149E+01  0.24483635160E+02  0.24945582048E+02  0.17770000000E+01 0.  1.
</event>
<event>
 7    1  0.1689772E-005  0.1937542E+03  0.7546771E-02  0.1059833E+00
        -11   -1    0    0    0    0  0.00000000000E+00  0.00000000000E+00  0.18250000000E+03  0.18250000000E+03  0.00000000000E+00 0. -1.
         11   -1    0    0    0    0 -0.00000000000E+00 -0.00000000000E+00 -0.18250000000E+03  0.18250000000E+03  0.00000000000E+00 0.  1.
         23    2    1    2    0    0  0.12970211370E+02  0.47773052634E+01  0.17040757152E+03  0.19375422205E+03  0.91164187622E+02 0.  0.
        -11    1    3    3    0    0  0.51360792573E+01  0.34450166727E+00 -0.10988759883E+02  0.12134695518E+02  0.00000000000E+00 0.  1.
         11    1    3    3    0    0  0.78341321126E+01  0.44328035961E+01  0.18139633140E+03  0.18161952654E+03  0.00000000000E+00 0. -1.
        -15    1    1    2    0    0 -0.13787229843E+02 -0.44961937142E+01 -0.13625039187E+03  0.13703149447E+03  0.17770000000E+01 0.  1.
         15    1    1    2    0    0  0.81701847355E+00 -0.28111154914E+00 -0.34157179652E+02  0.34214283474E+02  0.17770000000E+01 0.  1.
</event>
<event>
 7    1  0.1421899E-005  0.1896077E+03  0.7546771E-02  0.1062934E+00
        -11   -1    0    0    0    0  0.00000000000E+00  0.00000000000E+00  0.18250000000E+03  0.18250000000E+03  0.00000000000E+00 0.  1.
         11   -1    0    0    0    0 -0.00000000000E+00 -0.00000000000E+00 -0.18250000000E+03  0.18250000000E+03  0.00000000000E+00 0. -1.
         23    2    1    2    0    0 -0.76194851692E+02  0.30785846235E+02  0.14595277632E+03  0.18960769593E+03  0.88856297958E+02 0.  0.
        -11    1    3    3    0    0  0.28905439394E+01 -0.23981057981E+02  0.37850130804E+02  0.44900766007E+02  0.00000000000E+00 0.  1.
         11    1    3    3    0    0 -0.79085395631E+02  0.54766904215E+02  0.10810264552E+03  0.14470692992E+03  0.00000000000E+00 0. -1.
        -15    1    1    2    0    0  0.11677970294E+01 -0.20054866685E+02 -0.20124884021E+02  0.28490877725E+02  0.17770000000E+01 0.  1.
         15    1    1    2    0    0  0.75027054663E+02 -0.10730979550E+02 -0.12582789230E+03  0.14690142635E+03  0.17770000000E+01 0. -1.
</event>
<event>
 7    1  0.1421899E-005  0.1919043E+03  0.7546771E-02  0.1061206E+00
        -11   -1    0    0    0    0  0.00000000000E+00  0.00000000000E+00  0.18250000000E+03  0.18250000000E+03  0.00000000000E+00 0.  1.
         11   -1    0    0    0    0 -0.00000000000E+00 -0.00000000000E+00 -0.18250000000E+03  0.18250000000E+03  0.00000000000E+00 0. -1.
         23    2    1    2    0    0  0.91393089192E+01 -0.15333174939E+01 -0.16925401207E+03  0.19190429195E+03  0.89969209398E+02 0.  0.
        -11    1    3    3    0    0  0.31007070691E+02 -0.35403281560E+02 -0.11543262495E+03  0.12465761782E+03  0.00000000000E+00 0.  1.
         11    1    3    3    0    0 -0.21867761772E+02  0.33869964066E+02 -0.53821387114E+02  0.67246674130E+02  0.00000000000E+00 0. -1.
        -15    1    1    2    0    0  0.11029004391E+02  0.20587179834E+01  0.25418108192E+02  0.27840890981E+02  0.17770000000E+01 0. -1.
         15    1    1    2    0    0 -0.20168313311E+02 -0.52540048950E+00  0.14383590388E+03  0.14525481706E+03  0.17770000000E+01 0.  1.
</event>
<event>
 7    1  0.1421899E-005  0.1935124E+03  0.7546771E-02  0.1060012E+00
        -11   -1    0    0    0    0  0.00000000000E+00  0.00000000000E+00  0.18250000000E+03  0.18250000000E+03  0.00000000000E+00 0.  1.
         11   -1    0    0    0    0 -0.00000000000E+00 -0.00000000000E+00 -0.18250000000E+03  0.18250000000E+03  0.00000000000E+00 0. -1.
         23    2    1    2    0    0 -0.69936012929E+01  0.56319088110E+01 -0.17086776783E+03  0.19351238183E+03  0.90391476275E+02 0.  0.
        -11    1    3    3    0    0  0.30177509999E+02  0.22308323593E+02 -0.13190493061E+03  0.13713954255E+03  0.00000000000E+00 0.  1.
         11    1    3    3    0    0 -0.37171111291E+02 -0.16676414782E+02 -0.38962837220E+02  0.56372839283E+02  0.00000000000E+00 0. -1.
        -15    1    1    2    0    0  0.16496075847E+01 -0.78283255573E+01  0.11563823403E+03  0.11592826569E+03  0.17770000000E+01 0.  1.
         15    1    1    2    0    0  0.53439937082E+01  0.21964167463E+01  0.55229533799E+02  0.55559352479E+02  0.17770000000E+01 0. -1.
</event>
<event>
 7    1  0.1421899E-005  0.1911421E+03  0.7546771E-02  0.1061777E+00
        -11   -1    0    0    0    0  0.00000000000E+00  0.00000000000E+00  0.18250000000E+03  0.18250000000E+03  0.00000000000E+00 0.  1.
         11   -1    0    0    0    0 -0.00000000000E+00 -0.00000000000E+00 -0.18250000000E+03  0.18250000000E+03  0.00000000000E+00 0.  1.
         23    2    1    2    0    0  0.46131756196E+02  0.73596729199E+02 -0.14880597803E+03  0.19114208290E+03  0.82749376298E+02 0.  0.
        -11    1    3    3    0    0  0.33233789164E+02  0.22798659363E+01 -0.10380025938E+02  0.34891653291E+02  0.00000000000E+00 0.  1.
         11    1    3    3    0    0  0.12897967032E+02  0.71316863262E+02 -0.13842595210E+03  0.15625042961E+03  0.00000000000E+00 0.  1.
        -15    1    1    2    0    0 -0.88588107861E+01 -0.34864003560E+02  0.55535260029E+02  0.66191389986E+02  0.17770000000E+01 0. -1.
         15    1    1    2    0    0 -0.37272945410E+02 -0.38732725639E+02  0.93270718005E+02  0.10766652712E+03  0.17770000000E+01 0.  1.
</event>
<event>
 7    1  0.1421899E-005  0.1939942E+03  0.7546771E-02  0.1059657E+00
        -11   -1    0    0    0    0  0.00000000000E+00  0.00000000000E+00  0.18250000000E+03  0.18250000000E+03  0.00000000000E+00 0.  1.
         11   -1    0    0    0    0 -0.00000000000E+00 -0.00000000000E+00 -0.18250000000E+03  0.18250000000E+03  0.00000000000E+00 0.  1.
         23    2    1    2    0    0  0.99842164991E+01 -0.41716451102E+02 -0.16526501418E+03  0.19399421370E+03  0.92093882351E+02 0.  0.
        -11    1    3    3    0    0  0.32794306494E+01 -0.77055512727E+01  0.11296378127E+02  0.14061946685E+02  0.00000000000E+00 0.  1.
         11    1    3    3    0    0  0.67047858496E+01 -0.34010899830E+02 -0.17656139231E+03  0.17993226702E+03  0.00000000000E+00 0.  1.
        -15    1    1    2    0    0 -0.79887974961E+01  0.39136332755E+02  0.15550517660E+03  0.16056304402E+03  0.17770000000E+01 0.  1.
         15    1    1    2    0    0 -0.19954190030E+01  0.25801183471E+01  0.97598375843E+01  0.10442742281E+02  0.17770000000E+01 0.  1.
</event>
<event>
 7    1  0.1421899E-005  0.1934545E+03  0.7546771E-02  0.1060055E+00
        -11   -1    0    0    0    0  0.00000000000E+00  0.00000000000E+00  0.18250000000E+03  0.18250000000E+03  0.00000000000E+00 0.  1.
         11   -1    0    0    0    0 -0.00000000000E+00 -0.00000000000E+00 -0.18250000000E+03  0.18250000000E+03  0.00000000000E+00 0. -1.
         23    2    1    2    0    0 -0.22652994152E+02 -0.36818531013E+02 -0.16543764930E+03  0.19345454508E+03  0.90478079311E+02 0.  0.
        -11    1    3    3    0    0 -0.16695753171E+02 -0.65806774174E+02 -0.13437007413E+03  0.15054765532E+03  0.00000000000E+00 0. -1.
         11    1    3    3    0    0 -0.59572409811E+01  0.28988243161E+02 -0.31067575166E+02  0.42906889754E+02  0.00000000000E+00 0.  1.
        -15    1    1    2    0    0  0.15647676694E+02  0.33381579935E+02  0.14423574316E+03  0.14888346785E+03  0.17770000000E+01 0.  1.
         15    1    1    2    0    0  0.70053174580E+01  0.34369510781E+01  0.21201906137E+02  0.22661987077E+02  0.17770000000E+01 0.  1.
</event>
<event>
 7    1  0.1421899E-005  0.1943376E+03  0.7546771E-02  0.1059404E+00
        -11   -1    0    0    0    0  0.00000000000E+00  0.00000000000E+00  0.18250000000E+03  0.18250000000E+03  0.00000000000E+00 0.  1.
         11   -1    0    0    0    0 -0.00000000000E+00 -0.00000000000E+00 -0.18250000000E+03  0.18250000000E+03  0.00000000000E+00 0. -1.
         23    2    1    2    0    0  0.71899389959E+01  0.89400611120E+01  0.17014476040E+03  0.19433758048E+03  0.93199977362E+02 0.  0.
        -11    1    3    3    0    0 -0.40306901236E+02 -0.11519364997E+02  0.83503679570E+02  0.93435574376E+02  0.00000000000E+00 0. -1.
         11    1    3    3    0    0  0.47496840232E+02  0.20459426109E+02  0.86641080833E+02  0.10090200611E+03  0.00000000000E+00 0.  1.
        -15    1    1    2    0    0 -0.54333043006E+01 -0.69752222139E+01 -0.89076903697E+02  0.89532268048E+02  0.17770000000E+01 0. -1.
         15    1    1    2    0    0 -0.17566346952E+01 -0.19648388981E+01 -0.81067856706E+02  0.81130151468E+02  0.17770000000E+01 0. -1.
</event>
<event>
 7    1  0.1421899E-005  0.1920209E+03  0.7546771E-02  0.1061119E+00
        -11   -1    0    0    0    0  0.00000000000E+00  0.00000000000E+00  0.18250000000E+03  0.18250000000E+03  0.00000000000E+00 0. -1.
         11   -1    0    0    0    0 -0.00000000000E+00 -0.00000000000E+00 -0.18250000000E+03  0.18250000000E+03  0.00000000000E+00 0.  1.
         23    2    1    2    0    0  0.13824610384E+03  0.14702775126E+02 -0.96130045217E+02  0.19202093029E+03  0.91120224165E+02 0.  0.
        -11    1    3    3    0    0  0.69627965366E+02  0.20528709329E+02 -0.99392550547E+02  0.12307867635E+03  0.00000000000E+00 0.  1.
         11    1    3    3    0    0  0.68618138478E+02 -0.58259342031E+01  0.32625053298E+01  0.68942253942E+02  0.00000000000E+00 0. -1.
        -15    1    1    2    0    0 -0.32016420031E+02 -0.30560997053E+01  0.51520171353E+01  0.32620421618E+02  0.17770000000E+01 0.  1.
         15    1    1    2    0    0 -0.10622968381E+03 -0.11646675421E+02  0.90978028081E+02  0.14035864809E+03  0.17770000000E+01 0. -1.
</event>
<event>
 6    1  0.1421899E-005  0.1678870E+03  0.7546771E-02  0.1080721E+00
        -11   -1    0    0    0    0  0.00000000000E+00  0.00000000000E+00  0.18250000000E+03  0.18250000000E+03  0.00000000000E+00 0.  1.
         11   -1    0    0    0    0 -0.00000000000E+00 -0.00000000000E+00 -0.18250000000E+03  0.18250000000E+03  0.00000000000E+00 0.  1.
        -11    1    1    2    0    0  0.26409670622E+02  0.19689016390E+02 -0.43930988459E+01  0.33232926237E+02  0.00000000000E+00 0.  1.
         11    1    1    2    0    0 -0.48317630817E+01 -0.17157506257E+03 -0.84434189073E+01  0.17185063094E+03  0.00000000000E+00 0.  1.
        -15    1    1    2    0    0 -0.32267478019E+02  0.99933872947E+02  0.18131334490E+02  0.10658270084E+03  0.17770000000E+01 0.  1.
         15    1    1    2    0    0  0.10689570478E+02  0.51952173233E+02 -0.52948167363E+01  0.53333741983E+02  0.17770000000E+01 0. -1.
</event>
<event>
 7    1  0.1421899E-005  0.1919638E+03  0.7546771E-02  0.1061162E+00
        -11   -1    0    0    0    0  0.00000000000E+00  0.00000000000E+00  0.18250000000E+03  0.18250000000E+03  0.00000000000E+00 0. -1.
         11   -1    0    0    0    0 -0.00000000000E+00 -0.00000000000E+00 -0.18250000000E+03  0.18250000000E+03  0.00000000000E+00 0.  1.
         23    2    1    2    0    0 -0.13129592556E+02  0.10939001215E+02 -0.16812070027E+03  0.19196376775E+03  0.91068492474E+02 0.  0.
        -11    1    3    3    0    0  0.35426126551E+02 -0.49693327448E+01 -0.10396505070E+03  0.10994742597E+03  0.00000000000E+00 0.  1.
         11    1    3    3    0    0 -0.48555719107E+02  0.15908333960E+02 -0.64155649574E+02  0.82016341785E+02  0.00000000000E+00 0. -1.
        -15    1    1    2    0    0 -0.52865782135E+00  0.12976143243E+02  0.63334250157E+02  0.64676462059E+02  0.17770000000E+01 0.  1.
         15    1    1    2    0    0  0.13658250377E+02 -0.23915144458E+02  0.10478645012E+03  0.10835977019E+03  0.17770000000E+01 0. -1.
</event>
<event>
 7    1  0.1421899E-005  0.1924961E+03  0.7546771E-02  0.1060765E+00
        -11   -1    0    0    0    0  0.00000000000E+00  0.00000000000E+00  0.18250000000E+03  0.18250000000E+03  0.00000000000E+00 0. -1.
         11   -1    0    0    0    0 -0.00000000000E+00 -0.00000000000E+00 -0.18250000000E+03  0.18250000000E+03  0.00000000000E+00 0.  1.
         23    2    1    2    0    0  0.12355566225E+02  0.28682228410E+01 -0.17182100508E+03  0.19249612013E+03  0.85856926115E+02 0.  0.
        -11    1    3    3    0    0  0.24594976421E+02 -0.22889159782E+02 -0.15661419492E+03  0.16017750326E+03  0.00000000000E+00 0.  1.
         11    1    3    3    0    0 -0.12239410196E+02  0.25757382623E+02 -0.15206810161E+02  0.32318616877E+02  0.00000000000E+00 0. -1.
        -15    1    1    2    0    0 -0.77826026620E-01 -0.21225492592E+01  0.23355727166E+02  0.23519332318E+02  0.17770000000E+01 0. -1.
         15    1    1    2    0    0 -0.12277740198E+02 -0.74567358177E+00  0.14846527791E+03  0.14898454755E+03  0.17770000000E+01 0. -1.
</event>
<event>
 7    1  0.1421899E-005  0.1924754E+03  0.7546771E-02  0.1060780E+00
        -11   -1    0    0    0    0  0.00000000000E+00  0.00000000000E+00  0.18250000000E+03  0.18250000000E+03  0.00000000000E+00 0.  1.
         11   -1    0    0    0    0 -0.00000000000E+00 -0.00000000000E+00 -0.18250000000E+03  0.18250000000E+03  0.00000000000E+00 0.  1.
         23    2    1    2    0    0  0.23329134213E+02 -0.44544301440E+01 -0.16629548022E+03  0.19247542470E+03  0.93960161356E+02 0.  0.
        -11    1    3    3    0    0 -0.12966853854E+02 -0.15252383908E+02  0.18630015891E+01  0.20105852100E+02  0.00000000000E+00 0.  1.
         11    1    3    3    0    0  0.36295988068E+02  0.10797953764E+02 -0.16815848180E+03  0.17236957260E+03  0.00000000000E+00 0.  1.
        -15    1    1    2    0    0 -0.24436984591E+02  0.14811135844E+01  0.16702194242E+03  0.16881601491E+03  0.17770000000E+01 0.  1.
         15    1    1    2    0    0  0.11078503776E+01  0.29733165596E+01 -0.72646220146E+00  0.37085603882E+01  0.17770000000E+01 0. -1.
</event>
<event>
 7    1  0.1421899E-005  0.1911758E+03  0.7546771E-02  0.1061751E+00
        -11   -1    0    0    0    0  0.00000000000E+00  0.00000000000E+00  0.18250000000E+03  0.18250000000E+03  0.00000000000E+00 0. -1.
         11   -1    0    0    0    0 -0.00000000000E+00 -0.00000000000E+00 -0.18250000000E+03  0.18250000000E+03  0.00000000000E+00 0.  1.
         23    2    1    2    0    0 -0.78362181035E+01  0.56987706034E+01 -0.16820993198E+03  0.19117578067E+03  0.90331144111E+02 0.  0.
        -11    1    3    3    0    0 -0.25093602777E+02  0.32318424916E+02 -0.14802166878E+03  0.15357273169E+03  0.00000000000E+00 0.  1.
         11    1    3    3    0    0  0.17257384673E+02 -0.26619654313E+02 -0.20188263197E+02  0.37603048977E+02  0.00000000000E+00 0. -1.
        -15    1    1    2    0    0 -0.13192798137E+02 -0.14825210675E+02  0.95851979712E+02  0.97900952692E+02  0.17770000000E+01 0. -1.
         15    1    1    2    0    0  0.21029016240E+02  0.91264400718E+01  0.72357952267E+02  0.75923266642E+02  0.17770000000E+01 0.  1.
</event>
<event>
 7    1  0.1421899E-005  0.1938800E+03  0.7546771E-02  0.1059741E+00
        -11   -1    0    0    0    0  0.00000000000E+00  0.00000000000E+00  0.18250000000E+03  0.18250000000E+03  0.00000000000E+00 0. -1.
         11   -1    0    0    0    0 -0.00000000000E+00 -0.00000000000E+00 -0.18250000000E+03  0.18250000000E+03  0.00000000000E+00 0.  1.
         23    2    1    2    0    0  0.11757737768E+02 -0.83846636254E+01 -0.17031779234E+03  0.19388000302E+03  0.91502777012E+02 0.  0.
        -11    1    3    3    0    0 -0.12536901814E+02 -0.16979362225E+02 -0.16649551518E+03  0.16782797509E+03  0.00000000000E+00 0.  1.
         11    1    3    3    0    0  0.24294639583E+02  0.85946985999E+01 -0.38222771648E+01  0.26052027929E+02  0.00000000000E+00 0. -1.
        -15    1    1    2    0    0 -0.37150401641E+01  0.66937606087E+01  0.98111846596E+02  0.98426115061E+02  0.17770000000E+01 0. -1.
         15    1    1    2    0    0 -0.80426976041E+01  0.16909030167E+01  0.72205945749E+02  0.72693881918E+02  0.17770000000E+01 0.  1.
</event>
<event>
 7    1  0.1421899E-005  0.2664035E+03  0.7546771E-02  0.1016243E+00
        -11   -1    0    0    0    0  0.00000000000E+00  0.00000000000E+00  0.18250000000E+03  0.18250000000E+03  0.00000000000E+00 0. -1.
         11   -1    0    0    0    0 -0.00000000000E+00 -0.00000000000E+00 -0.18250000000E+03  0.18250000000E+03  0.00000000000E+00 0.  1.
         23    2    1    2    0    0 -0.15097810722E+02 -0.17540307753E+02  0.25432953027E+02  0.98596480888E+02  0.92405760963E+02 0.  0.
        -11    1    3    3    0    0 -0.11872019363E+02  0.20479853654E+02 -0.25605656028E+02  0.34871462116E+02  0.00000000000E+00 0.  1.
         11    1    3    3    0    0 -0.32257913594E+01 -0.38020161407E+02  0.51038609055E+02  0.63725018772E+02  0.00000000000E+00 0. -1.
        -15    1    1    2    0    0  0.13610601673E+03 -0.16996455154E+02 -0.30203002771E+02  0.14046033741E+03  0.17770000000E+01 0. -1.
         15    1    1    2    0    0 -0.12100820601E+03  0.34536762907E+02  0.47700497446E+01  0.12594318171E+03  0.17770000000E+01 0.  1.
</event>
<event>
 7    1  0.1421899E-005  0.1934387E+03  0.7546771E-02  0.1060066E+00
        -11   -1    0    0    0    0  0.00000000000E+00  0.00000000000E+00  0.18250000000E+03  0.18250000000E+03  0.00000000000E+00 0.  1.
         11   -1    0    0    0    0 -0.00000000000E+00 -0.00000000000E+00 -0.18250000000E+03  0.18250000000E+03  0.00000000000E+00 0. -1.
         23    2    1    2    0    0 -0.46156483446E+02 -0.28930299701E+02  0.16222408621E+03  0.19343874514E+03  0.90191522710E+02 0.  0.
        -11    1    3    3    0    0 -0.53723825221E+02  0.14795008787E+00  0.15276772703E+03  0.16193903083E+03  0.00000000000E+00 0.  1.
         11    1    3    3    0    0  0.75673417748E+01 -0.29078249789E+02  0.94563591819E+01  0.31499714305E+02  0.00000000000E+00 0. -1.
        -15    1    1    2    0    0  0.40848871459E+02  0.29117451633E+02 -0.14416399846E+03  0.15265278402E+03  0.17770000000E+01 0. -1.
         15    1    1    2    0    0  0.53076119870E+01 -0.18715193214E+00 -0.18060087752E+02  0.18908470838E+02  0.17770000000E+01 0.  1.
</event>
<event>
 7    1  0.1421899E-005  0.1928405E+03  0.7546771E-02  0.1060509E+00
        -11   -1    0    0    0    0  0.00000000000E+00  0.00000000000E+00  0.18250000000E+03  0.18250000000E+03  0.00000000000E+00 0. -1.
         11   -1    0    0    0    0 -0.00000000000E+00 -0.00000000000E+00 -0.18250000000E+03  0.18250000000E+03  0.00000000000E+00 0.  1.
         23    2    1    2    0    0  0.17741015076E+01 -0.29397067243E+01 -0.17148611772E+03  0.19284050590E+03  0.88137295348E+02 0.  0.
        -11    1    3    3    0    0  0.37465320529E+01  0.62760116147E+01  0.92889874463E+01  0.11819903214E+02  0.00000000000E+00 0. -1.
         11    1    3    3    0    0 -0.19724305453E+01 -0.92157183391E+01 -0.18077510517E+03  0.18102060268E+03  0.00000000000E+00 0.  1.
        -15    1    1    2    0    0  0.21915044623E+01 -0.28932507625E+01  0.15970396441E+02  0.16473763482E+02  0.17770000000E+01 0.  1.
         15    1    1    2    0    0 -0.39656059699E+01  0.58329574868E+01  0.15551572128E+03  0.15568573062E+03  0.17770000000E+01 0. -1.
</event>
<event>
 7    1  0.1421899E-005  0.1928635E+03  0.7546771E-02  0.1060492E+00
        -11   -1    0    0    0    0  0.00000000000E+00  0.00000000000E+00  0.18250000000E+03  0.18250000000E+03  0.00000000000E+00 0. -1.
         11   -1    0    0    0    0 -0.00000000000E+00 -0.00000000000E+00 -0.18250000000E+03  0.18250000000E+03  0.00000000000E+00 0.  1.
         23    2    1    2    0    0  0.26972616339E+02 -0.61103991759E+02 -0.13057912609E+03  0.17213650775E+03  0.90104657417E+02 0.  0.
        -11    1    3    3    0    0  0.11140089173E+02 -0.54805420389E+02 -0.14132719113E+03  0.15199049524E+03  0.00000000000E+00 0.  1.
         11    1    3    3    0    0  0.15832527165E+02 -0.62985713698E+01  0.10748065042E+02  0.20146012506E+02  0.00000000000E+00 0. -1.
        -15    1    1    2    0    0 -0.50244833187E+02  0.60046719093E+02  0.14543207964E+03  0.16517808345E+03  0.17770000000E+01 0. -1.
         15    1    1    2    0    0  0.23272216848E+02  0.10572726651E+01 -0.14852953549E+02  0.27685408804E+02  0.17770000000E+01 0.  1.
</event>
<event>
 7    1  0.1421899E-005  0.2569667E+03  0.7546771E-02  0.1020996E+00
        -11   -1    0    0    0    0  0.00000000000E+00  0.00000000000E+00  0.18250000000E+03  0.18250000000E+03  0.00000000000E+00 0. -1.
         11   -1    0    0    0    0 -0.00000000000E+00 -0.00000000000E+00 -0.18250000000E+03  0.18250000000E+03  0.00000000000E+00 0.  1.
         23    2    1    2    0    0 -0.25740838341E+02 -0.23161624067E+02 -0.50788234032E+02  0.10803332008E+03  0.88840879913E+02 0.  0.
        -11    1    3    3    0    0 -0.24718279312E+02 -0.83629023880E+01 -0.75127236891E+02  0.79530077275E+02  0.00000000000E+00 0.  1.
         11    1    3    3    0    0 -0.10225590287E+01 -0.14798721679E+02  0.24339002859E+02  0.28503242806E+02  0.00000000000E+00 0. -1.
        -15    1    1    2    0    0 -0.10988038686E+03 -0.84625095891E+01  0.40093625722E+02  0.11728584756E+03  0.17770000000E+01 0.  1.
         15    1    1    2    0    0  0.13562122520E+03  0.31624133656E+02  0.10694608310E+02  0.13968083236E+03  0.17770000000E+01 0. -1.
</event>
<event>
 7    1  0.1421899E-005  0.1836096E+03  0.7546771E-02  0.1067575E+00
        -11   -1    0    0    0    0  0.00000000000E+00  0.00000000000E+00  0.18250000000E+03  0.18250000000E+03  0.00000000000E+00 0.  1.
         11   -1    0    0    0    0 -0.00000000000E+00 -0.00000000000E+00 -0.18250000000E+03  0.18250000000E+03  0.00000000000E+00 0. -1.
         23    2    1    2    0    0 -0.19153609835E+02 -0.23721459651E+02  0.15638284268E+03  0.18360964163E+03  0.91254252488E+02 0.  0.
        -11    1    3    3    0    0 -0.33957552447E+02 -0.49867969431E+02  0.71428821771E+02  0.93498696906E+02  0.00000000000E+00 0.  1.
         11    1    3    3    0    0  0.14803942612E+02  0.26146509780E+02  0.84954020912E+02  0.90110944728E+02  0.00000000000E+00 0. -1.
        -15    1    1    2    0    0 -0.10347553101E+02  0.54068160751E+01 -0.14399761525E+03  0.14448105911E+03  0.17770000000E+01 0. -1.
         15    1    1    2    0    0  0.29501162936E+02  0.18314643576E+02 -0.12385227432E+02  0.36909299255E+02  0.17770000000E+01 0.  1.
</event>
<event>
 7    1  0.1421899E-005  0.1934163E+03  0.7546771E-02  0.1060083E+00
        -11   -1    0    0    0    0  0.00000000000E+00  0.00000000000E+00  0.18250000000E+03  0.18250000000E+03  0.00000000000E+00 0. -1.
         11   -1    0    0    0    0 -0.00000000000E+00 -0.00000000000E+00 -0.18250000000E+03  0.18250000000E+03  0.00000000000E+00 0.  1.
         23    2    1    2    0    0  0.55258885459E+02  0.31496246008E+02  0.15848714917E+03  0.19341625199E+03  0.90808106159E+02 0.  0.
        -11    1    3    3    0    0  0.18495120570E+02 -0.32010188486E+02  0.62164067691E+02  0.72326295106E+02  0.00000000000E+00 0. -1.
         11    1    3    3    0    0  0.36763764889E+02  0.63506434493E+02  0.96323081482E+02  0.12108995688E+03  0.00000000000E+00 0.  1.
        -15    1    1    2    0    0 -0.55238218057E+02 -0.30299313827E+02 -0.14769675065E+03  0.16058267975E+03  0.17770000000E+01 0.  1.
         15    1    1    2    0    0 -0.20667401256E-01 -0.11969321803E+01 -0.10790398519E+02  0.11001068266E+02  0.17770000000E+01 0. -1.
</event>
<event>
 7    1  0.1421899E-005  0.1984614E+03  0.7546771E-02  0.1056415E+00
        -11   -1    0    0    0    0  0.00000000000E+00  0.00000000000E+00  0.18250000000E+03  0.18250000000E+03  0.00000000000E+00 0. -1.
         11   -1    0    0    0    0 -0.00000000000E+00 -0.00000000000E+00 -0.18250000000E+03  0.18250000000E+03  0.00000000000E+00 0.  1.
         23    2    1    2    0    0  0.17958317650E+02  0.91971431268E+02 -0.10334551661E+03  0.16653862547E+03  0.90959181105E+02 0.  0.
        -11    1    3    3    0    0  0.44887787038E+02  0.77651317955E+02 -0.10225718912E+03  0.13601901827E+03  0.00000000000E+00 0.  1.
         11    1    3    3    0    0 -0.26929469388E+02  0.14320113313E+02 -0.10883274944E+01  0.30519607198E+02  0.00000000000E+00 0. -1.
        -15    1    1    2    0    0  0.11397653565E+02 -0.12467361924E+03  0.81069114730E+02  0.14916023911E+03  0.17770000000E+01 0. -1.
         15    1    1    2    0    0 -0.29355971215E+02  0.32702187968E+02  0.22276401881E+02  0.49301135419E+02  0.17770000000E+01 0.  1.
</event>
<event>
 7    1  0.1421899E-005  0.3650000E+03  0.7546771E-02  0.9765871E-01
        -11   -1    0    0    0    0  0.00000000000E+00  0.00000000000E+00  0.18250000000E+03  0.18250000000E+03  0.00000000000E+00 0. -1.
         11   -1    0    0    0    0 -0.00000000000E+00 -0.00000000000E+00 -0.18250000000E+03  0.18250000000E+03  0.00000000000E+00 0.  1.
         23    2    1    2    0    0 -0.62350124911E+02  0.92956671807E+02  0.74494803460E+02  0.16226752865E+03  0.90844890900E+02 0.  0.
        -11    1    3    3    0    0 -0.20553388553E+02 -0.14269943365E+02 -0.28176967205E+00  0.25023038561E+02  0.00000000000E+00 0.  1.
         11    1    3    3    0    0 -0.41796736357E+02  0.10722661517E+03  0.74776573132E+02  0.13724449009E+03  0.00000000000E+00 0. -1.
        -15    1    1    2    0    0  0.15112336136E+02 -0.45346019258E+02  0.45012286264E+02  0.65680345689E+02  0.17770000000E+01 0. -1.
         15    1    1    2    0    0  0.47237788775E+02 -0.47610652548E+02 -0.11950708972E+03  0.13705212566E+03  0.17770000000E+01 0.  1.
</event>
<event>
 7    1  0.1421899E-005  0.1921882E+03  0.7546771E-02  0.1060994E+00
        -11   -1    0    0    0    0  0.00000000000E+00  0.00000000000E+00  0.18250000000E+03  0.18250000000E+03  0.00000000000E+00 0.  1.
         11   -1    0    0    0    0 -0.00000000000E+00 -0.00000000000E+00 -0.18250000000E+03  0.18250000000E+03  0.00000000000E+00 0. -1.
         23    2    1    2    0    0 -0.19842191071E+01 -0.32231142476E+00 -0.17273145899E+03  0.19218822740E+03  0.84238452112E+02 0.  0.
        -11    1    3    3    0    0  0.22743418986E+02  0.34639988929E+02 -0.84685594979E+02  0.94280655159E+02  0.00000000000E+00 0.  1.
         11    1    3    3    0    0 -0.24727638093E+02 -0.34962300354E+02 -0.88045864015E+02  0.97907572240E+02  0.00000000000E+00 0. -1.
        -15    1    1    2    0    0  0.31394960513E+00  0.13276680097E+01  0.11285791654E+03  0.11288015026E+03  0.17770000000E+01 0.  1.
         15    1    1    2    0    0  0.16702695019E+01 -0.10053565849E+01  0.59873542453E+02  0.59931622346E+02  0.17770000000E+01 0.  1.
</event>
<event>
 7    1  0.1421899E-005  0.1884491E+03  0.7546771E-02  0.1063816E+00
        -11   -1    0    0    0    0  0.00000000000E+00  0.00000000000E+00  0.18250000000E+03  0.18250000000E+03  0.00000000000E+00 0.  1.
         11   -1    0    0    0    0 -0.00000000000E+00 -0.00000000000E+00 -0.18250000000E+03  0.18250000000E+03  0.00000000000E+00 0. -1.
         23    2    1    2    0    0 -0.94477762187E+01  0.19359215266E+02 -0.16403223485E+03  0.18844910561E+03  0.90235534261E+02 0.  0.
        -11    1    3    3    0    0  0.14154711350E+02  0.49482122321E+02 -0.69638052768E+02  0.86592694126E+02  0.00000000000E+00 0.  1.
         11    1    3    3    0    0 -0.23602487569E+02 -0.30122907055E+02 -0.94394182086E+02  0.10185641148E+03  0.00000000000E+00 0. -1.
        -15    1    1    2    0    0 -0.34652452642E+01  0.21295572406E+01 -0.44023507024E+01  0.62515085771E+01  0.17770000000E+01 0. -1.
         15    1    1    2    0    0  0.12913021483E+02 -0.21488772506E+02  0.16843458556E+03  0.17029938581E+03  0.17770000000E+01 0.  1.
</event>
<event>
 7    1  0.1421899E-005  0.1937083E+03  0.7546771E-02  0.1059867E+00
        -11   -1    0    0    0    0  0.00000000000E+00  0.00000000000E+00  0.18250000000E+03  0.18250000000E+03  0.00000000000E+00 0. -1.
         11   -1    0    0    0    0 -0.00000000000E+00 -0.00000000000E+00 -0.18250000000E+03  0.18250000000E+03  0.00000000000E+00 0.  1.
         23    2    1    2    0    0  0.17292053551E+02 -0.13881285747E+02 -0.16891194307E+03  0.19370832481E+03  0.92195256818E+02 0.  0.
        -11    1    3    3    0    0  0.83803116632E+01  0.61890567854E+01  0.94104329038E+01  0.14038885102E+02  0.00000000000E+00 0. -1.
         11    1    3    3    0    0  0.89117418881E+01 -0.20070342533E+02 -0.17832237597E+03  0.17966943971E+03  0.00000000000E+00 0.  1.
        -15    1    1    2    0    0 -0.19847991897E+02  0.13441203186E+02  0.16089055030E+03  0.16267616799E+03  0.17770000000E+01 0. -1.
         15    1    1    2    0    0  0.25559383460E+01  0.44008256138E+00  0.80213927664E+01  0.86155072051E+01  0.17770000000E+01 0.  1.
</event>
<event>
 7    1  0.1421899E-005  0.1898861E+03  0.7546771E-02  0.1062723E+00
        -11   -1    0    0    0    0  0.00000000000E+00  0.00000000000E+00  0.18250000000E+03  0.18250000000E+03  0.00000000000E+00 0. -1.
         11   -1    0    0    0    0 -0.00000000000E+00 -0.00000000000E+00 -0.18250000000E+03  0.18250000000E+03  0.00000000000E+00 0.  1.
         23    2    1    2    0    0 -0.16090551174E+03  0.28977339429E+02 -0.16316956992E+02  0.18988611359E+03  0.95185204431E+02 0.  0.
        -11    1    3    3    0    0 -0.10322832401E+03  0.31344460342E+02  0.34204255990E+02  0.11317461376E+03  0.00000000000E+00 0. -1.
         11    1    3    3    0    0 -0.57677187729E+02 -0.23671209134E+01 -0.50521212982E+02  0.76711499835E+02  0.00000000000E+00 0.  1.
        -15    1    1    2    0    0  0.30700551376E+02 -0.22995284760E+02  0.22693932917E+02  0.44603579410E+02  0.17770000000E+01 0. -1.
         15    1    1    2    0    0  0.13020496036E+03 -0.59820546686E+01 -0.63769759245E+01  0.13051030699E+03  0.17770000000E+01 0.  1.
</event>
<event>
 7    1  0.1665036E-005  0.1958408E+03  0.7546771E-02  0.1058305E+00
        -11   -1    0    0    0    0  0.00000000000E+00  0.00000000000E+00  0.18250000000E+03  0.18250000000E+03  0.00000000000E+00 0.  1.
         11   -1    0    0    0    0 -0.00000000000E+00 -0.00000000000E+00 -0.18250000000E+03  0.18250000000E+03  0.00000000000E+00 0.  1.
         23    2    1    2    0    0  0.17633459997E+02 -0.98808816966E+01  0.16783046490E+03  0.19584078155E+03  0.98883648980E+02 0.  0.
        -11    1    3    3    0    0 -0.85674739246E+01 -0.43819927967E+02  0.13394624104E+03  0.14119200822E+03  0.00000000000E+00 0.  1.
         11    1    3    3    0    0  0.26200933921E+02  0.33939046271E+02  0.33884223862E+02  0.54648773333E+02  0.00000000000E+00 0.  1.
        -15    1    1    2    0    0 -0.12919975803E+02  0.52874889225E+01 -0.12499081925E+03  0.12578054675E+03  0.17770000000E+01 0. -1.
         15    1    1    2    0    0 -0.47134841936E+01  0.45933927741E+01 -0.42839645645E+02  0.43378671700E+02  0.17770000000E+01 0.  1.
</event>
<event>
 7    1  0.1421899E-005  0.1906369E+03  0.7546771E-02  0.1062156E+00
        -11   -1    0    0    0    0  0.00000000000E+00  0.00000000000E+00  0.18250000000E+03  0.18250000000E+03  0.00000000000E+00 0. -1.
         11   -1    0    0    0    0 -0.00000000000E+00 -0.00000000000E+00 -0.18250000000E+03  0.18250000000E+03  0.00000000000E+00 0.  1.
         23    2    1    2    0    0  0.42347868659E+02 -0.15493412523E+01  0.16207241551E+03  0.19063690862E+03  0.90990222663E+02 0.  0.
        -11    1    3    3    0    0  0.55822837833E+02 -0.17229583353E+02  0.15942647276E+03  0.16979354518E+03  0.00000000000E+00 0. -1.
         11    1    3    3    0    0 -0.13474969174E+02  0.15680242101E+02  0.26459427487E+01  0.20843363443E+02  0.00000000000E+00 0.  1.
        -15    1    1    2    0    0 -0.12723246127E+02 -0.16492790181E+02 -0.10865006166E+03  0.11064306010E+03  0.17770000000E+01 0.  1.
         15    1    1    2    0    0 -0.29624622532E+02  0.18042131433E+02 -0.53422353852E+02  0.63720031284E+02  0.17770000000E+01 0. -1.
</event>
<event>
 7    1  0.1421899E-005  0.1865320E+03  0.7546771E-02  0.1065290E+00
        -11   -1    0    0    0    0  0.00000000000E+00  0.00000000000E+00  0.18250000000E+03  0.18250000000E+03  0.00000000000E+00 0.  1.
         11   -1    0    0    0    0 -0.00000000000E+00 -0.00000000000E+00 -0.18250000000E+03  0.18250000000E+03  0.00000000000E+00 0. -1.
         23    2    1    2    0    0  0.75706828443E+02  0.31379279678E+02 -0.14039543575E+03  0.18653202184E+03  0.91472037945E+02 0.  0.
        -11    1    3    3    0    0  0.25165553663E+02 -0.27522125525E+02 -0.79736781617E+02  0.88026852876E+02  0.00000000000E+00 0. -1.
         11    1    3    3    0    0  0.50541274779E+02  0.58901405203E+02 -0.60658654138E+02  0.98505168966E+02  0.00000000000E+00 0.  1.
        -15    1    1    2    0    0  0.49959535512E+01 -0.25025018753E+02  0.16435977852E+02  0.30405759527E+02  0.17770000000E+01 0. -1.
         15    1    1    2    0    0 -0.80702781994E+02 -0.63542609255E+01  0.12395945790E+03  0.14806221863E+03  0.17770000000E+01 0.  1.
</event>
<event>
 7    1  0.1421899E-005  0.1904633E+03  0.7546771E-02  0.1062287E+00
        -11   -1    0    0    0    0  0.00000000000E+00  0.00000000000E+00  0.18250000000E+03  0.18250000000E+03  0.00000000000E+00 0.  1.
         11   -1    0    0    0    0 -0.00000000000E+00 -0.00000000000E+00 -0.18250000000E+03  0.18250000000E+03  0.00000000000E+00 0. -1.
         23    2    1    2    0    0 -0.73259792772E+02 -0.10714080960E+03 -0.11123563578E+03  0.19046333487E+03  0.84004553128E+02 0.  0.
        -11    1    3    3    0    0 -0.75397302310E+01 -0.83785939939E+02 -0.69998185392E+02  0.10943800629E+03  0.00000000000E+00 0. -1.
         11    1    3    3    0    0 -0.65720062541E+02 -0.23354869658E+02 -0.41237450384E+02  0.81025328579E+02  0.00000000000E+00 0.  1.
        -15    1    1    2    0    0  0.70515649044E+02  0.10747148513E+03  0.11268126774E+03  0.17094678325E+03  0.17770000000E+01 0.  1.
         15    1    1    2    0    0  0.27441437280E+01 -0.33067552930E+00 -0.14456319648E+01  0.35898818760E+01  0.17770000000E+01 0. -1.
</event>
<event>
 7    1  0.1421899E-005  0.1925729E+03  0.7546771E-02  0.1060708E+00
        -11   -1    0    0    0    0  0.00000000000E+00  0.00000000000E+00  0.18250000000E+03  0.18250000000E+03  0.00000000000E+00 0. -1.
         11   -1    0    0    0    0 -0.00000000000E+00 -0.00000000000E+00 -0.18250000000E+03  0.18250000000E+03  0.00000000000E+00 0. -1.
         23    2    1    2    0    0 -0.47271014682E+02 -0.20467553169E+02 -0.16196849891E+03  0.19257289390E+03  0.90537590344E+02 0.  0.
        -11    1    3    3    0    0 -0.16666837773E+02 -0.12793804397E+01  0.81957483602E+01  0.18616943542E+02  0.00000000000E+00 0. -1.
         11    1    3    3    0    0 -0.30604176908E+02 -0.19188172729E+02 -0.17016424727E+03  0.17395595036E+03  0.00000000000E+00 0. -1.
        -15    1    1    2    0    0  0.25575767878E+02  0.18565161172E+02  0.56912653176E+02  0.65122906357E+02  0.17770000000E+01 0.  1.
         15    1    1    2    0    0  0.21695246804E+02  0.19023919966E+01  0.10505584574E+03  0.10730419974E+03  0.17770000000E+01 0. -1.
</event>
<event>
 7    1  0.1421899E-005  0.1854976E+03  0.7546771E-02  0.1066093E+00
        -11   -1    0    0    0    0  0.00000000000E+00  0.00000000000E+00  0.18250000000E+03  0.18250000000E+03  0.00000000000E+00 0.  1.
         11   -1    0    0    0    0 -0.00000000000E+00 -0.00000000000E+00 -0.18250000000E+03  0.18250000000E+03  0.00000000000E+00 0. -1.
         23    2    1    2    0    0 -0.12785072119E+03  0.60285261895E+02 -0.63082760116E+02  0.17950235764E+03  0.90893025390E+02 0.  0.
        -11    1    3    3    0    0 -0.25925774243E+02  0.51883304238E+02  0.24243568103E+01  0.58050844393E+02  0.00000000000E+00 0.  1.
         11    1    3    3    0    0 -0.10192494694E+03  0.84019576574E+01 -0.65507116926E+02  0.12145151325E+03  0.00000000000E+00 0. -1.
        -15    1    1    2    0    0  0.13568603749E+03 -0.76677215160E+02  0.52904795888E+02  0.16459699648E+03  0.17770000000E+01 0.  1.
         15    1    1    2    0    0 -0.78353162984E+01  0.16391953265E+02  0.10177964228E+02  0.20900645879E+02  0.17770000000E+01 0. -1.
</event>
<event>
 7    1  0.1421899E-005  0.2161510E+03  0.7546771E-02  0.1044435E+00
        -11   -1    0    0    0    0  0.00000000000E+00  0.00000000000E+00  0.18250000000E+03  0.18250000000E+03  0.00000000000E+00 0. -1.
         11   -1    0    0    0    0 -0.00000000000E+00 -0.00000000000E+00 -0.18250000000E+03  0.18250000000E+03  0.00000000000E+00 0.  1.
         23    2    1    2    0    0 -0.53871508543E+02 -0.69175884164E+02  0.80893035707E+02  0.14884900084E+03  0.89021904284E+02 0.  0.
        -11    1    3    3    0    0 -0.76782076016E+02 -0.61221792039E+02  0.75835910539E+02  0.12407530111E+03  0.00000000000E+00 0.  1.
         11    1    3    3    0    0  0.22910567472E+02 -0.79540921249E+01  0.50571251684E+01  0.24773699732E+02  0.00000000000E+00 0. -1.
        -15    1    1    2    0    0  0.47248213628E+02  0.91252832764E+02  0.26631816023E+02  0.10616913173E+03  0.17770000000E+01 0. -1.
         15    1    1    2    0    0  0.66232949153E+01 -0.22076948600E+02 -0.10752485173E+03  0.10998186743E+03  0.17770000000E+01 0.  1.
</event>
<event>
 7    1  0.1421899E-005  0.1846283E+03  0.7546771E-02  0.1066773E+00
        -11   -1    0    0    0    0  0.00000000000E+00  0.00000000000E+00  0.18250000000E+03  0.18250000000E+03  0.00000000000E+00 0.  1.
         11   -1    0    0    0    0 -0.00000000000E+00 -0.00000000000E+00 -0.18250000000E+03  0.18250000000E+03  0.00000000000E+00 0. -1.
         23    2    1    2    0    0  0.10245061614E+03 -0.11018780876E+03  0.54263195270E+02  0.18462831659E+03  0.92226021174E+02 0.  0.
        -11    1    3    3    0    0  0.92059708656E+02 -0.32406088368E+02  0.23854530606E+02  0.10046981214E+03  0.00000000000E+00 0. -1.
         11    1    3    3    0    0  0.10390907480E+02 -0.77781720389E+02  0.30408664664E+02  0.84158504452E+02  0.00000000000E+00 0.  1.
        -15    1    1    2    0    0 -0.23811010442E+02  0.82378846767E+02 -0.43743831663E+02  0.96280419352E+02  0.17770000000E+01 0. -1.
         15    1    1    2    0    0 -0.78639605695E+02  0.27808961989E+02 -0.10519363607E+02  0.84091264056E+02  0.17770000000E+01 0.  1.
</event>
<event>
 7    1  0.1421899E-005  0.1913865E+03  0.7546771E-02  0.1061593E+00
        -11   -1    0    0    0    0  0.00000000000E+00  0.00000000000E+00  0.18250000000E+03  0.18250000000E+03  0.00000000000E+00 0.  1.
         11   -1    0    0    0    0 -0.00000000000E+00 -0.00000000000E+00 -0.18250000000E+03  0.18250000000E+03  0.00000000000E+00 0. -1.
         23    2    1    2    0    0 -0.38863281254E+02  0.25511422462E+02  0.16705026815E+03  0.19138654591E+03  0.81005126755E+02 0.  0.
        -11    1    3    3    0    0 -0.13981063591E+02  0.24692873839E+02  0.67545027856E+01  0.29169015503E+02  0.00000000000E+00 0. -1.
         11    1    3    3    0    0 -0.24882217663E+02  0.81854862288E+00  0.16029576536E+03  0.16221753040E+03  0.00000000000E+00 0.  1.
        -15    1    1    2    0    0  0.31825517742E+02 -0.23557772724E+02 -0.13534556301E+03  0.14102982447E+03  0.17770000000E+01 0. -1.
         15    1    1    2    0    0  0.70377635123E+01 -0.19536497382E+01 -0.31704705140E+02  0.32583629626E+02  0.17770000000E+01 0.  1.
</event>
<event>
 7    1  0.1421899E-005  0.1931447E+03  0.7546771E-02  0.1060284E+00
        -11   -1    0    0    0    0  0.00000000000E+00  0.00000000000E+00  0.18250000000E+03  0.18250000000E+03  0.00000000000E+00 0. -1.
         11   -1    0    0    0    0 -0.00000000000E+00 -0.00000000000E+00 -0.18250000000E+03  0.18250000000E+03  0.00000000000E+00 0.  1.
         23    2    1    2    0    0 -0.14073729061E+02 -0.27347227551E+02 -0.16725074184E+03  0.19314465244E+03  0.91575681350E+02 0.  0.
        -11    1    3    3    0    0  0.24935442945E+02  0.21932046374E+02 -0.67849576293E+02  0.75540426105E+02  0.00000000000E+00 0. -1.
         11    1    3    3    0    0 -0.39009172005E+02 -0.49279273925E+02 -0.99401165547E+02  0.11760422633E+03  0.00000000000E+00 0.  1.
        -15    1    1    2    0    0  0.10066138829E+01  0.18198229853E+02  0.45432088090E+02  0.48983887131E+02  0.17770000000E+01 0. -1.
         15    1    1    2    0    0  0.13067115178E+02  0.91489976983E+01  0.12181865375E+03  0.12287146043E+03  0.17770000000E+01 0.  1.
</event>
<event>
 7    1  0.1421899E-005  0.1930007E+03  0.7546771E-02  0.1060390E+00
        -11   -1    0    0    0    0  0.00000000000E+00  0.00000000000E+00  0.18250000000E+03  0.18250000000E+03  0.00000000000E+00 0.  1.
         11   -1    0    0    0    0 -0.00000000000E+00 -0.00000000000E+00 -0.18250000000E+03  0.18250000000E+03  0.00000000000E+00 0. -1.
         23    2    1    2    0    0 -0.10662048601E+02  0.15837056717E+02 -0.16984442006E+03  0.19300071328E+03  0.89652979058E+02 0.  0.
        -11    1    3    3    0    0  0.25137322802E+02 -0.16851461673E+02 -0.22009643585E+02  0.37420330956E+02  0.00000000000E+00 0.  1.
         11    1    3    3    0    0 -0.35799371403E+02  0.32688518390E+02 -0.14783477648E+03  0.15558038232E+03  0.00000000000E+00 0. -1.
        -15    1    1    2    0    0 -0.46120227827E+01 -0.92364041513E+00  0.50311482922E+02  0.50562109415E+02  0.17770000000E+01 0. -1.
         15    1    1    2    0    0  0.15274071384E+02 -0.14913416302E+02  0.11953293714E+03  0.12143717731E+03  0.17770000000E+01 0.  1.
</event>
<event>
 7    1  0.1421899E-005  0.1911275E+03  0.7546771E-02  0.1061787E+00
        -11   -1    0    0    0    0  0.00000000000E+00  0.00000000000E+00  0.18250000000E+03  0.18250000000E+03  0.00000000000E+00 0.  1.
         11   -1    0    0    0    0 -0.00000000000E+00 -0.00000000000E+00 -0.18250000000E+03  0.18250000000E+03  0.00000000000E+00 0. -1.
         23    2    1    2    0    0  0.53924594966E+01 -0.40276043260E+02 -0.16250806065E+03  0.19112754028E+03  0.92030585117E+02 0.  0.
        -11    1    3    3    0    0  0.48559364833E+02 -0.16529939274E+02 -0.80211966480E+02  0.95211398330E+02  0.00000000000E+00 0.  1.
         11    1    3    3    0    0 -0.43166905336E+02 -0.23746103986E+02 -0.82296094171E+02  0.95916141950E+02  0.00000000000E+00 0. -1.
        -15    1    1    2    0    0 -0.25109124467E+02  0.28185813172E+02  0.86274585693E+02  0.94187950722E+02  0.17770000000E+01 0. -1.
         15    1    1    2    0    0  0.19716664970E+02  0.12090230088E+02  0.76233474958E+02  0.79684508998E+02  0.17770000000E+01 0.  1.
</event>
<event>
 7    1  0.1421899E-005  0.1917667E+03  0.7546771E-02  0.1061309E+00
        -11   -1    0    0    0    0  0.00000000000E+00  0.00000000000E+00  0.18250000000E+03  0.18250000000E+03  0.00000000000E+00 0.  1.
         11   -1    0    0    0    0 -0.00000000000E+00 -0.00000000000E+00 -0.18250000000E+03  0.18250000000E+03  0.00000000000E+00 0. -1.
         23    2    1    2    0    0  0.21929364637E+02  0.77726557752E+01  0.16863751625E+03  0.19176673201E+03  0.88286785014E+02 0.  0.
        -11    1    3    3    0    0  0.37644724370E+02  0.21788822579E+02  0.16469678233E+03  0.17034350053E+03  0.00000000000E+00 0.  1.
         11    1    3    3    0    0 -0.15715359733E+02 -0.14016166804E+02  0.39407339210E+01  0.21423231484E+02  0.00000000000E+00 0. -1.
        -15    1    1    2    0    0 -0.18723865879E+02  0.64021480852E+01 -0.13624081960E+03  0.13768184087E+03  0.17770000000E+01 0. -1.
         15    1    1    2    0    0 -0.32054987582E+01 -0.14174803860E+02 -0.32396696654E+02  0.35551427114E+02  0.17770000000E+01 0.  1.
</event>
<event>
 7    1  0.1421899E-005  0.1921124E+03  0.7546771E-02  0.1061051E+00
        -11   -1    0    0    0    0  0.00000000000E+00  0.00000000000E+00  0.18250000000E+03  0.18250000000E+03  0.00000000000E+00 0. -1.
         11   -1    0    0    0    0 -0.00000000000E+00 -0.00000000000E+00 -0.18250000000E+03  0.18250000000E+03  0.00000000000E+00 0.  1.
         23    2    1    2    0    0 -0.82658812047E+01  0.61215726269E+01 -0.16920654472E+03  0.19211241508E+03  0.90390966411E+02 0.  0.
        -11    1    3    3    0    0 -0.11290795804E+02 -0.83105084475E+01 -0.17551496222E+03  0.17607398611E+03  0.00000000000E+00 0.  1.
         11    1    3    3    0    0  0.30249145990E+01  0.14432081074E+02  0.63084175033E+01  0.16038428971E+02  0.00000000000E+00 0. -1.
        -15    1    1    2    0    0  0.17205870674E+02 -0.11198111126E+02  0.14595735305E+03  0.14740470249E+03  0.17770000000E+01 0. -1.
         15    1    1    2    0    0 -0.89399894696E+01  0.50765384996E+01  0.23249191664E+02  0.25482882429E+02  0.17770000000E+01 0.  1.
</event>
<event>
 7    1  0.1421899E-005  0.1921708E+03  0.7546771E-02  0.1061007E+00
        -11   -1    0    0    0    0  0.00000000000E+00  0.00000000000E+00  0.18250000000E+03  0.18250000000E+03  0.00000000000E+00 0.  1.
         11   -1    0    0    0    0 -0.00000000000E+00 -0.00000000000E+00 -0.18250000000E+03  0.18250000000E+03  0.00000000000E+00 0. -1.
         23    2    1    2    0    0 -0.98904199419E+02  0.67905567026E+02 -0.11903191131E+03  0.19217075834E+03  0.91475667556E+02 0.  0.
        -11    1    3    3    0    0 -0.56721154452E+02  0.19687057607E+02 -0.11282375749E+03  0.12780481154E+03  0.00000000000E+00 0. -1.
         11    1    3    3    0    0 -0.42183044966E+02  0.48218509420E+02 -0.62081538214E+01  0.64365946798E+02  0.00000000000E+00 0.  1.
        -15    1    1    2    0    0  0.48879982429E+02 -0.47725513932E+02  0.47516979344E+02  0.83234598680E+02  0.17770000000E+01 0. -1.
         15    1    1    2    0    0  0.50024216990E+02 -0.20180053094E+02  0.71514931964E+02  0.89594642982E+02  0.17770000000E+01 0.  1.
</event>
<event>
 7    1  0.1421899E-005  0.1937954E+03  0.7546771E-02  0.1059803E+00
        -11   -1    0    0    0    0  0.00000000000E+00  0.00000000000E+00  0.18250000000E+03  0.18250000000E+03  0.00000000000E+00 0.  1.
         11   -1    0    0    0    0 -0.00000000000E+00 -0.00000000000E+00 -0.18250000000E+03  0.18250000000E+03  0.00000000000E+00 0. -1.
         23    2    1    2    0    0 -0.13493611794E+02  0.97583404624E+01 -0.17012795959E+03  0.19379538707E+03  0.91300748344E+02 0.  0.
        -11    1    3    3    0    0 -0.24443179751E+02 -0.30620122212E+02 -0.13018494327E+03  0.13595286085E+03  0.00000000000E+00 0. -1.
         11    1    3    3    0    0  0.10949567956E+02  0.40378462674E+02 -0.39943016320E+02  0.57842526216E+02  0.00000000000E+00 0.  1.
        -15    1    1    2    0    0  0.12173956709E+02 -0.59572615859E+01  0.14887660437E+03  0.14950282688E+03  0.17770000000E+01 0.  1.
         15    1    1    2    0    0  0.13196550854E+01 -0.38010788765E+01  0.21251355218E+02  0.21701786050E+02  0.17770000000E+01 0. -1.
</event>
<event>
 7    1  0.1421899E-005  0.1900960E+03  0.7546771E-02  0.1062564E+00
        -11   -1    0    0    0    0  0.00000000000E+00  0.00000000000E+00  0.18250000000E+03  0.18250000000E+03  0.00000000000E+00 0.  1.
         11   -1    0    0    0    0 -0.00000000000E+00 -0.00000000000E+00 -0.18250000000E+03  0.18250000000E+03  0.00000000000E+00 0. -1.
         23    2    1    2    0    0  0.65980520760E+01  0.78380404332E+02 -0.14741362636E+03  0.19009601452E+03  0.90657020831E+02 0.  0.
        -11    1    3    3    0    0  0.24803810042E+01  0.86027608043E+01  0.12614119392E+02  0.15468541994E+02  0.00000000000E+00 0.  1.
         11    1    3    3    0    0  0.41176710718E+01  0.69777643528E+02 -0.16002774575E+03  0.17462747253E+03  0.00000000000E+00 0. -1.
        -15    1    1    2    0    0  0.47465275984E+01 -0.74869392038E+02  0.14406652589E+03  0.16243853298E+03  0.17770000000E+01 0.  1.
         15    1    1    2    0    0 -0.11344579674E+02 -0.35110122947E+01  0.33471004718E+01  0.12465452495E+02  0.17770000000E+01 0. -1.
</event>
<event>
 7    1  0.1421899E-005  0.1930709E+03  0.7546771E-02  0.1060338E+00
        -11   -1    0    0    0    0  0.00000000000E+00  0.00000000000E+00  0.18250000000E+03  0.18250000000E+03  0.00000000000E+00 0.  1.
         11   -1    0    0    0    0 -0.00000000000E+00 -0.00000000000E+00 -0.18250000000E+03  0.18250000000E+03  0.00000000000E+00 0. -1.
         23    2    1    2    0    0  0.48681398355E+02 -0.12819444525E+02 -0.16341175018E+03  0.19307088053E+03  0.89659065959E+02 0.  0.
        -11    1    3    3    0    0  0.37289118927E+02  0.20195122639E+02 -0.14963330754E+03  0.15552635820E+03  0.00000000000E+00 0. -1.
         11    1    3    3    0    0  0.11392279428E+02 -0.33014567164E+02 -0.13778442637E+02  0.37544522332E+02  0.00000000000E+00 0.  1.
        -15    1    1    2    0    0 -0.25681470766E+02 -0.19265226865E+01  0.71024750612E+02  0.75570644822E+02  0.17770000000E+01 0.  1.
         15    1    1    2    0    0 -0.22999927589E+02  0.14745967212E+02  0.92386999567E+02  0.96358474646E+02  0.17770000000E+01 0. -1.
</event>
<event>
 7    1  0.1421899E-005  0.1945713E+03  0.7546771E-02  0.1059232E+00
        -11   -1    0    0    0    0  0.00000000000E+00  0.00000000000E+00  0.18250000000E+03  0.18250000000E+03  0.00000000000E+00 0. -1.
         11   -1    0    0    0    0 -0.00000000000E+00 -0.00000000000E+00 -0.18250000000E+03  0.18250000000E+03  0.00000000000E+00 0.  1.
         23    2    1    2    0    0 -0.11368230963E+02 -0.97330434765E+01 -0.16960601589E+03  0.19457128009E+03  0.94169069233E+02 0.  0.
        -11    1    3    3    0    0 -0.33193839488E+02 -0.20761079445E+02 -0.16513452245E+03  0.16971229744E+03  0.00000000000E+00 0.  1.
         11    1    3    3    0    0  0.21825608525E+02  0.11028035968E+02 -0.44714934444E+01  0.24858982651E+02  0.00000000000E+00 0. -1.
        -15    1    1    2    0    0  0.19318804639E+00  0.30236981331E+01  0.30283490171E+02  0.30486514690E+02  0.17770000000E+01 0.  1.
         15    1    1    2    0    0  0.11175042917E+02  0.67093453434E+01  0.13932252572E+03  0.13994220522E+03  0.17770000000E+01 0. -1.
</event>
<event>
 7    1  0.1421899E-005  0.1935260E+03  0.7546771E-02  0.1060002E+00
        -11   -1    0    0    0    0  0.00000000000E+00  0.00000000000E+00  0.18250000000E+03  0.18250000000E+03  0.00000000000E+00 0.  1.
         11   -1    0    0    0    0 -0.00000000000E+00 -0.00000000000E+00 -0.18250000000E+03  0.18250000000E+03  0.00000000000E+00 0. -1.
         23    2    1    2    0    0  0.29687115472E+02 -0.43058115723E+02  0.16293027606E+03  0.19352601852E+03  0.90392028590E+02 0.  0.
        -11    1    3    3    0    0  0.23182128317E+01  0.27692675238E+02  0.33751074476E+02  0.43719485368E+02  0.00000000000E+00 0. -1.
         11    1    3    3    0    0  0.27368902640E+02 -0.70750790960E+02  0.12917920158E+03  0.14980653315E+03  0.00000000000E+00 0.  1.
        -15    1    1    2    0    0 -0.15176315317E+02  0.15379246848E+02 -0.55774028778E+02  0.59839299757E+02  0.17770000000E+01 0.  1.
         15    1    1    2    0    0 -0.14510800155E+02  0.27678868875E+02 -0.10715624728E+03  0.11163468172E+03  0.17770000000E+01 0. -1.
</event>
<event>
 7    1  0.1421899E-005  0.1871423E+03  0.7546771E-02  0.1064818E+00
        -11   -1    0    0    0    0  0.00000000000E+00  0.00000000000E+00  0.18250000000E+03  0.18250000000E+03  0.00000000000E+00 0.  1.
         11   -1    0    0    0    0 -0.00000000000E+00 -0.00000000000E+00 -0.18250000000E+03  0.18250000000E+03  0.00000000000E+00 0. -1.
         23    2    1    2    0    0 -0.14645235703E+03  0.19301717244E+02 -0.34230638008E+02  0.17785767665E+03  0.92955728160E+02 0.  0.
        -11    1    3    3    0    0 -0.24889824453E+02 -0.10644057958E+02 -0.44663925979E+02  0.52227058265E+02  0.00000000000E+00 0.  1.
         11    1    3    3    0    0 -0.12156253257E+03  0.29945775203E+02  0.10433287971E+02  0.12563061838E+03  0.00000000000E+00 0. -1.
        -15    1    1    2    0    0  0.13944059850E+03  0.22296688010E+02  0.32332317458E+02  0.14487704887E+03  0.17770000000E+01 0.  1.
         15    1    1    2    0    0  0.70117585213E+01 -0.41598405254E+02  0.18983205500E+01  0.42265274484E+02  0.17770000000E+01 0. -1.
</event>
<event>
 7    1  0.1421899E-005  0.1900210E+03  0.7546771E-02  0.1062621E+00
        -11   -1    0    0    0    0  0.00000000000E+00  0.00000000000E+00  0.18250000000E+03  0.18250000000E+03  0.00000000000E+00 0. -1.
         11   -1    0    0    0    0 -0.00000000000E+00 -0.00000000000E+00 -0.18250000000E+03  0.18250000000E+03  0.00000000000E+00 0. -1.
         23    2    1    2    0    0 -0.11787713764E+02 -0.36768170304E+02 -0.16413775416E+03  0.19002104663E+03  0.87612483577E+02 0.  0.
        -11    1    3    3    0    0  0.14618400430E+02  0.41100094692E+01  0.33976738990E+01  0.15560655414E+02  0.00000000000E+00 0. -1.
         11    1    3    3    0    0 -0.26406114194E+02 -0.40878179774E+02 -0.16753542806E+03  0.17446039122E+03  0.00000000000E+00 0. -1.
        -15    1    1    2    0    0  0.17643830524E+02  0.56225717523E+01  0.11490449077E+03  0.11640067782E+03  0.17770000000E+01 0.  1.
         15    1    1    2    0    0 -0.58561167607E+01  0.31145598552E+02  0.49233263397E+02  0.58578275550E+02  0.17770000000E+01 0. -1.
</event>
<event>
 7    1  0.2510844E-005  0.1932202E+03  0.7546771E-02  0.1060228E+00
        -11   -1    0    0    0    0  0.00000000000E+00  0.00000000000E+00  0.18250000000E+03  0.18250000000E+03  0.00000000000E+00 0.  1.
         11   -1    0    0    0    0 -0.00000000000E+00 -0.00000000000E+00 -0.18250000000E+03  0.18250000000E+03  0.00000000000E+00 0. -1.
         23    2    1    2    0    0  0.66469656989E+01  0.73953827424E+00  0.17139718370E+03  0.19322015111E+03  0.88951127839E+02 0.  0.
        -11    1    3    3    0    0 -0.54064268994E+01 -0.15696616561E+01 -0.99638872097E+01  0.11444314652E+02  0.00000000000E+00 0. -1.
         11    1    3    3    0    0  0.12053392598E+02  0.23091999303E+01  0.18136107091E+03  0.18177583646E+03  0.00000000000E+00 0.  1.
        -15    1    1    2    0    0  0.14447740687E+01 -0.19832285326E+01 -0.53160114741E+02  0.53246371668E+02  0.17770000000E+01 0.  1.
         15    1    1    2    0    0 -0.80917397676E+01  0.12436902584E+01 -0.11823706896E+03  0.11853347722E+03  0.17770000000E+01 0. -1.
</event>
<event>
 7    1  0.1421899E-005  0.1942801E+03  0.7546771E-02  0.1059446E+00
        -11   -1    0    0    0    0  0.00000000000E+00  0.00000000000E+00  0.18250000000E+03  0.18250000000E+03  0.00000000000E+00 0.  1.
         11   -1    0    0    0    0 -0.00000000000E+00 -0.00000000000E+00 -0.18250000000E+03  0.18250000000E+03  0.00000000000E+00 0. -1.
         23    2    1    2    0    0  0.90405524431E+02 -0.14226646778E+03  0.10071854762E+02  0.19428006327E+03  0.96074939631E+02 0.  0.
        -11    1    3    3    0    0  0.67138225182E+01 -0.38163054265E+02 -0.36092462286E+02  0.52954319536E+02  0.00000000000E+00 0.  1.
         11    1    3    3    0    0  0.83691701913E+02 -0.10410341351E+03  0.46164317048E+02  0.14132574373E+03  0.00000000000E+00 0. -1.
        -15    1    1    2    0    0 -0.81744595888E+02  0.12574472777E+03 -0.16532901000E+02  0.15089867482E+03  0.17770000000E+01 0.  1.
         15    1    1    2    0    0 -0.86609285430E+01  0.16521740007E+02  0.64610462379E+01  0.19821261907E+02  0.17770000000E+01 0. -1.
</event>
<event>
 7    1  0.1421899E-005  0.1921765E+03  0.7546771E-02  0.1061003E+00
        -11   -1    0    0    0    0  0.00000000000E+00  0.00000000000E+00  0.18250000000E+03  0.18250000000E+03  0.00000000000E+00 0. -1.
         11   -1    0    0    0    0 -0.00000000000E+00 -0.00000000000E+00 -0.18250000000E+03  0.18250000000E+03  0.00000000000E+00 0.  1.
         23    2    1    2    0    0  0.79885087908E+01  0.12492198611E+02 -0.17155233856E+03  0.19217650161E+03  0.85333062807E+02 0.  0.
        -11    1    3    3    0    0 -0.18622505408E+02  0.42549428939E+02 -0.94127924362E+02  0.10496341151E+03  0.00000000000E+00 0.  1.
         11    1    3    3    0    0  0.26611014199E+02 -0.30057230328E+02 -0.77424414197E+02  0.87213090104E+02  0.00000000000E+00 0. -1.
        -15    1    1    2    0    0 -0.10661774729E+02 -0.70433134610E+01  0.14291805674E+03  0.14349916507E+03  0.17770000000E+01 0. -1.
         15    1    1    2    0    0  0.26732659379E+01 -0.54488851498E+01  0.28634281817E+02  0.29324333314E+02  0.17770000000E+01 0.  1.
</event>
<event>
 7    1  0.1421899E-005  0.1906654E+03  0.7546771E-02  0.1062135E+00
        -11   -1    0    0    0    0  0.00000000000E+00  0.00000000000E+00  0.18250000000E+03  0.18250000000E+03  0.00000000000E+00 0. -1.
         11   -1    0    0    0    0 -0.00000000000E+00 -0.00000000000E+00 -0.18250000000E+03  0.18250000000E+03  0.00000000000E+00 0. -1.
         23    2    1    2    0    0 -0.80563865604E+00 -0.48916934970E+01 -0.16991879534E+03  0.19066540343E+03  0.86349993262E+02 0.  0.
        -11    1    3    3    0    0  0.95521494675E+01  0.12356863148E+02 -0.16982898020E+03  0.17054564826E+03  0.00000000000E+00 0. -1.
         11    1    3    3    0    0 -0.10357788124E+02 -0.17248556645E+02 -0.89815139934E-01  0.20119755165E+02  0.00000000000E+00 0. -1.
        -15    1    1    2    0    0 -0.13590927701E+02  0.12933108596E+02  0.53112691185E+02  0.56356847921E+02  0.17770000000E+01 0. -1.
         15    1    1    2    0    0  0.14396566357E+02 -0.80414150987E+01  0.11680610415E+03  0.11797774865E+03  0.17770000000E+01 0.  1.
</event>
<event>
 7    1  0.1421899E-005  0.1932465E+03  0.7546771E-02  0.1060208E+00
        -11   -1    0    0    0    0  0.00000000000E+00  0.00000000000E+00  0.18250000000E+03  0.18250000000E+03  0.00000000000E+00 0. -1.
         11   -1    0    0    0    0 -0.00000000000E+00 -0.00000000000E+00 -0.18250000000E+03  0.18250000000E+03  0.00000000000E+00 0.  1.
         23    2    1    2    0    0  0.17930320031E+02 -0.16535249892E+01 -0.17062238484E+03  0.19324652604E+03  0.88926886242E+02 0.  0.
        -11    1    3    3    0    0  0.38021452705E+01  0.36065301817E+02 -0.30298207187E+02  0.47256149467E+02  0.00000000000E+00 0. -1.
         11    1    3    3    0    0  0.14128174760E+02 -0.37718826806E+02 -0.14032417765E+03  0.14599037657E+03  0.00000000000E+00 0.  1.
        -15    1    1    2    0    0 -0.17457028896E+02  0.84371847977E+00  0.15775568558E+03  0.15873082177E+03  0.17770000000E+01 0. -1.
         15    1    1    2    0    0 -0.47329113487E+00  0.80980650942E+00  0.12866699260E+02  0.13022652185E+02  0.17770000000E+01 0. -1.
</event>
<event>
 6    1  0.1421899E-005  0.1532851E+03  0.7546771E-02  0.1094426E+00
        -11   -1    0    0    0    0  0.00000000000E+00  0.00000000000E+00  0.18250000000E+03  0.18250000000E+03  0.00000000000E+00 0. -1.
         11   -1    0    0    0    0 -0.00000000000E+00 -0.00000000000E+00 -0.18250000000E+03  0.18250000000E+03  0.00000000000E+00 0. -1.
        -11    1    1    2    0    0  0.10851969023E+02  0.14440703104E+02  0.15364763739E+03  0.15470583574E+03  0.00000000000E+00 0. -1.
         11    1    1    2    0    0 -0.15385916036E+02 -0.52371173146E+02 -0.40399726844E+01  0.54733788178E+02  0.00000000000E+00 0. -1.
        -15    1    1    2    0    0  0.20764768475E+01  0.38405817110E+02 -0.12593194539E+03  0.13168648808E+03  0.17770000000E+01 0. -1.
         15    1    1    2    0    0  0.24574701656E+01 -0.47534706766E+00 -0.23675719312E+02  0.23873888003E+02  0.17770000000E+01 0.  1.
</event>
<event>
 7    1  0.1557703E-005  0.1936172E+03  0.7546771E-02  0.1059935E+00
        -11   -1    0    0    0    0  0.00000000000E+00  0.00000000000E+00  0.18250000000E+03  0.18250000000E+03  0.00000000000E+00 0. -1.
         11   -1    0    0    0    0 -0.00000000000E+00 -0.00000000000E+00 -0.18250000000E+03  0.18250000000E+03  0.00000000000E+00 0.  1.
         23    2    1    2    0    0  0.64167838605E+01  0.60580225685E+01  0.17073230838E+03  0.19361721939E+03  0.90885817204E+02 0.  0.
        -11    1    3    3    0    0  0.13627541822E+02  0.24453018390E+02  0.17157279106E+03  0.17384154462E+03  0.00000000000E+00 0. -1.
         11    1    3    3    0    0 -0.72107579612E+01 -0.18394995821E+02 -0.84048267917E+00  0.19775674774E+02  0.00000000000E+00 0.  1.
        -15    1    1    2    0    0  0.18025590866E+01 -0.48940488921E+01 -0.40359847295E+02  0.40734210886E+02  0.17770000000E+01 0. -1.
         15    1    1    2    0    0 -0.82193429472E+01 -0.11639736764E+01 -0.13037246108E+03  0.13064856972E+03  0.17770000000E+01 0.  1.
</event>
<event>
 7    1  0.1421899E-005  0.1903837E+03  0.7546771E-02  0.1062347E+00
        -11   -1    0    0    0    0  0.00000000000E+00  0.00000000000E+00  0.18250000000E+03  0.18250000000E+03  0.00000000000E+00 0.  1.
         11   -1    0    0    0    0 -0.00000000000E+00 -0.00000000000E+00 -0.18250000000E+03  0.18250000000E+03  0.00000000000E+00 0. -1.
         23    2    1    2    0    0  0.84685382488E+01  0.12454241296E+03 -0.11355092710E+03  0.19038371499E+03  0.88145431667E+02 0.  0.
        -11    1    3    3    0    0 -0.35276485729E+02  0.38866194721E+02 -0.62032343939E+02  0.81258988624E+02  0.00000000000E+00 0. -1.
         11    1    3    3    0    0  0.43745023978E+02  0.85676218238E+02 -0.51518583158E+02  0.10912472637E+03  0.00000000000E+00 0.  1.
        -15    1    1    2    0    0  0.79718643161E+00 -0.54264490899E+02  0.21453182479E+02  0.58383792667E+02  0.17770000000E+01 0. -1.
         15    1    1    2    0    0 -0.92657246804E+01 -0.70277922061E+02  0.92097744619E+02  0.11623249234E+03  0.17770000000E+01 0.  1.
</event>
<event>
 7    1  0.1421899E-005  0.1849770E+03  0.7546771E-02  0.1066500E+00
        -11   -1    0    0    0    0  0.00000000000E+00  0.00000000000E+00  0.18250000000E+03  0.18250000000E+03  0.00000000000E+00 0.  1.
         11   -1    0    0    0    0 -0.00000000000E+00 -0.00000000000E+00 -0.18250000000E+03  0.18250000000E+03  0.00000000000E+00 0. -1.
         23    2    1    2    0    0  0.11263956681E+02 -0.46283986393E+02 -0.14766392558E+03  0.18002296737E+03  0.91293755233E+02 0.  0.
        -11    1    3    3    0    0 -0.71155698231E+01  0.38572017653E+01  0.10401674926E+02  0.13179688184E+02  0.00000000000E+00 0.  1.
         11    1    3    3    0    0  0.18379526504E+02 -0.50141188158E+02 -0.15806560051E+03  0.16684327918E+03  0.00000000000E+00 0. -1.
        -15    1    1    2    0    0 -0.30402801302E+02 -0.33103073961E+01  0.12224783386E+03  0.12602769169E+03  0.17770000000E+01 0.  1.
         15    1    1    2    0    0  0.19138844621E+02  0.49594293789E+02  0.25416091726E+02  0.58949340942E+02  0.17770000000E+01 0. -1.
</event>
<event>
 7    1  0.1421899E-005  0.1945086E+03  0.7546771E-02  0.1059279E+00
        -11   -1    0    0    0    0  0.00000000000E+00  0.00000000000E+00  0.18250000000E+03  0.18250000000E+03  0.00000000000E+00 0.  1.
         11   -1    0    0    0    0 -0.00000000000E+00 -0.00000000000E+00 -0.18250000000E+03  0.18250000000E+03  0.00000000000E+00 0. -1.
         23    2    1    2    0    0 -0.11909739310E+02 -0.30650822532E+02 -0.16692079840E+03  0.19450855367E+03  0.94285257062E+02 0.  0.
        -11    1    3    3    0    0 -0.35679571804E+02 -0.54922574782E+02 -0.10157540113E+03  0.12085976659E+03  0.00000000000E+00 0. -1.
         11    1    3    3    0    0  0.23769832494E+02  0.24271752250E+02 -0.65345397272E+02  0.73648787083E+02  0.00000000000E+00 0.  1.
        -15    1    1    2    0    0 -0.60267461045E+00  0.55152527577E+01  0.17473753808E+02  0.18419311356E+02  0.17770000000E+01 0. -1.
         15    1    1    2    0    0  0.12512413920E+02  0.25135569775E+02  0.14944704459E+03  0.15207213498E+03  0.17770000000E+01 0.  1.
</event>
<event>
 7    1  0.1421899E-005  0.1918283E+03  0.7546771E-02  0.1061263E+00
        -11   -1    0    0    0    0  0.00000000000E+00  0.00000000000E+00  0.18250000000E+03  0.18250000000E+03  0.00000000000E+00 0.  1.
         11   -1    0    0    0    0 -0.00000000000E+00 -0.00000000000E+00 -0.18250000000E+03  0.18250000000E+03  0.00000000000E+00 0. -1.
         23    2    1    2    0    0 -0.15926936622E+02  0.26504826970E+01 -0.16802513349E+03  0.19182831441E+03  0.91131577162E+02 0.  0.
        -11    1    3    3    0    0 -0.32849551051E+02  0.39018668915E+02 -0.11044259842E+03  0.12165162174E+03  0.00000000000E+00 0. -1.
         11    1    3    3    0    0  0.16922614429E+02 -0.36368186218E+02 -0.57582535076E+02  0.70176692667E+02  0.00000000000E+00 0.  1.
        -15    1    1    2    0    0 -0.29447313143E+01 -0.16613608762E+02  0.49379514993E+02  0.52212811346E+02  0.17770000000E+01 0. -1.
         15    1    1    2    0    0  0.18871667936E+02  0.13963126065E+02  0.11864561850E+03  0.12095887424E+03  0.17770000000E+01 0.  1.
</event>
<event>
 7    1  0.1421899E-005  0.2000322E+03  0.7546771E-02  0.1055297E+00
        -11   -1    0    0    0    0  0.00000000000E+00  0.00000000000E+00  0.18250000000E+03  0.18250000000E+03  0.00000000000E+00 0. -1.
         11   -1    0    0    0    0 -0.00000000000E+00 -0.00000000000E+00 -0.18250000000E+03  0.18250000000E+03  0.00000000000E+00 0.  1.
         23    2    1    2    0    0 -0.12327291033E+03 -0.10583006657E+02 -0.56155833099E+02  0.16496779877E+03  0.93555793984E+02 0.  0.
        -11    1    3    3    0    0 -0.11939622747E+03 -0.24760572098E+02 -0.73388775444E+02  0.14231815564E+03  0.00000000000E+00 0.  1.
         11    1    3    3    0    0 -0.38766828617E+01  0.14177565440E+02  0.17232942345E+02  0.22649643125E+02  0.00000000000E+00 0. -1.
        -15    1    1    2    0    0  0.36159204235E+02 -0.57176587897E+02  0.58758448491E+02  0.89623452581E+02  0.17770000000E+01 0. -1.
         15    1    1    2    0    0  0.87113706093E+02  0.67759594555E+02 -0.26026153923E+01  0.11040874865E+03  0.17770000000E+01 0.  1.
</event>
<event>
 7    1  0.1421899E-005  0.1934275E+03  0.7546771E-02  0.1060075E+00
        -11   -1    0    0    0    0  0.00000000000E+00  0.00000000000E+00  0.18250000000E+03  0.18250000000E+03  0.00000000000E+00 0. -1.
         11   -1    0    0    0    0 -0.00000000000E+00 -0.00000000000E+00 -0.18250000000E+03  0.18250000000E+03  0.00000000000E+00 0.  1.
         23    2    1    2    0    0 -0.12959218019E+02  0.97508364167E+00 -0.17097552172E+03  0.19342751938E+03  0.89513597326E+02 0.  0.
        -11    1    3    3    0    0 -0.14486143349E+02  0.35399066166E+02 -0.30884301846E+02  0.49160780456E+02  0.00000000000E+00 0. -1.
         11    1    3    3    0    0  0.15269253291E+01 -0.34423982525E+02 -0.14009121988E+03  0.14426673893E+03  0.00000000000E+00 0.  1.
        -15    1    1    2    0    0  0.84164788279E+01  0.12701793791E+01  0.89986037572E+02  0.90405172189E+02  0.17770000000E+01 0.  1.
         15    1    1    2    0    0  0.45427391916E+01 -0.22452630208E+01  0.80989484151E+02  0.81167308428E+02  0.17770000000E+01 0. -1.
</event>
<event>
 7    1  0.1535205E-005  0.1938856E+03  0.7546771E-02  0.1059737E+00
        -11   -1    0    0    0    0  0.00000000000E+00  0.00000000000E+00  0.18250000000E+03  0.18250000000E+03  0.00000000000E+00 0.  1.
         11   -1    0    0    0    0 -0.00000000000E+00 -0.00000000000E+00 -0.18250000000E+03  0.18250000000E+03  0.00000000000E+00 0. -1.
         23    2    1    2    0    0  0.71855745759E+01  0.68906005567E+01  0.17075886652E+03  0.19388561603E+03  0.91290354101E+02 0.  0.
        -11    1    3    3    0    0  0.31185107242E+02 -0.14354763660E+02  0.19945415409E+02  0.39703775000E+02  0.00000000000E+00 0. -1.
         11    1    3    3    0    0 -0.23999532666E+02  0.21245364217E+02  0.15081345111E+03  0.15418184103E+03  0.00000000000E+00 0.  1.
        -15    1    1    2    0    0 -0.28319254790E+01 -0.47710450874E+01 -0.83191382559E+02  0.83395122964E+02  0.17770000000E+01 0. -1.
         15    1    1    2    0    0 -0.43536490969E+01 -0.21195554693E+01 -0.87567483957E+02  0.87719261005E+02  0.17770000000E+01 0.  1.
</event>
<event>
 7    1  0.1421899E-005  0.1950396E+03  0.7546771E-02  0.1058889E+00
        -11   -1    0    0    0    0  0.00000000000E+00  0.00000000000E+00  0.18250000000E+03  0.18250000000E+03  0.00000000000E+00 0.  1.
         11   -1    0    0    0    0 -0.00000000000E+00 -0.00000000000E+00 -0.18250000000E+03  0.18250000000E+03  0.00000000000E+00 0. -1.
         23    2    1    2    0    0  0.23452847044E+02 -0.53240304487E+01 -0.16805908904E+03  0.19503964105E+03  0.96011576575E+02 0.  0.
        -11    1    3    3    0    0 -0.28146898561E+02 -0.21937768580E+02 -0.10983593172E+03  0.11548785861E+03  0.00000000000E+00 0.  1.
         11    1    3    3    0    0  0.51599745605E+02  0.16613738131E+02 -0.58223157320E+02  0.79551782440E+02  0.00000000000E+00 0. -1.
        -15    1    1    2    0    0 -0.15917313675E+02  0.69002806758E+01  0.11337572392E+03  0.11470914197E+03  0.17770000000E+01 0.  1.
         15    1    1    2    0    0 -0.75355333689E+01 -0.15762502271E+01  0.54683365118E+02  0.55251216978E+02  0.17770000000E+01 0.  1.
</event>
<event>
 7    1  0.1421899E-005  0.2359848E+03  0.7546771E-02  0.1032403E+00
        -11   -1    0    0    0    0  0.00000000000E+00  0.00000000000E+00  0.18250000000E+03  0.18250000000E+03  0.00000000000E+00 0.  1.
         11   -1    0    0    0    0 -0.00000000000E+00 -0.00000000000E+00 -0.18250000000E+03  0.18250000000E+03  0.00000000000E+00 0. -1.
         23    2    1    2    0    0  0.87524904976E+02  0.92428522262E+01  0.18594231388E+02  0.12901521014E+03  0.92483186026E+02 0.  0.
        -11    1    3    3    0    0  0.30085441853E+02  0.51475651793E+01  0.53559249529E+02  0.61645960524E+02  0.00000000000E+00 0.  1.
         11    1    3    3    0    0  0.57439463122E+02  0.40952870469E+01 -0.34965018141E+02  0.67369249613E+02  0.00000000000E+00 0. -1.
        -15    1    1    2    0    0 -0.48388579927E+02  0.95576644840E+01  0.98998819903E+02  0.11061974367E+03  0.17770000000E+01 0.  1.
         15    1    1    2    0    0 -0.39136325048E+02 -0.18800516710E+02 -0.11759305129E+03  0.12536504620E+03  0.17770000000E+01 0. -1.
</event>
<event>
 7    1  0.1421899E-005  0.2481431E+03  0.7546771E-02  0.1025644E+00
        -11   -1    0    0    0    0  0.00000000000E+00  0.00000000000E+00  0.18250000000E+03  0.18250000000E+03  0.00000000000E+00 0.  1.
         11   -1    0    0    0    0 -0.00000000000E+00 -0.00000000000E+00 -0.18250000000E+03  0.18250000000E+03  0.00000000000E+00 0. -1.
         23    2    1    2    0    0 -0.20888242040E+02  0.52395366617E+02 -0.43501438977E+02  0.11685688412E+03  0.92636726384E+02 0.  0.
        -11    1    3    3    0    0  0.13622131669E+02  0.39101772429E+02 -0.62738406804E+02  0.75170597753E+02  0.00000000000E+00 0. -1.
         11    1    3    3    0    0 -0.34510373709E+02  0.13293594188E+02  0.19236967827E+02  0.41686286368E+02  0.00000000000E+00 0.  1.
        -15    1    1    2    0    0  0.13667070809E+02 -0.13460234939E+03 -0.28886897274E+02  0.13835531016E+03  0.17770000000E+01 0.  1.
         15    1    1    2    0    0  0.72211712305E+01  0.82206982774E+02  0.72388336250E+02  0.10978780572E+03  0.17770000000E+01 0. -1.
</event>
<event>
 7    1  0.1421899E-005  0.1928565E+03  0.7546771E-02  0.1060497E+00
        -11   -1    0    0    0    0  0.00000000000E+00  0.00000000000E+00  0.18250000000E+03  0.18250000000E+03  0.00000000000E+00 0. -1.
         11   -1    0    0    0    0 -0.00000000000E+00 -0.00000000000E+00 -0.18250000000E+03  0.18250000000E+03  0.00000000000E+00 0.  1.
         23    2    1    2    0    0 -0.61757124216E+01  0.52463163930E+00 -0.17177622729E+03  0.19285647962E+03  0.87453615183E+02 0.  0.
        -11    1    3    3    0    0 -0.13042876346E+02  0.27593800664E+02 -0.15942529380E+03  0.16232054325E+03  0.00000000000E+00 0.  1.
         11    1    3    3    0    0  0.68671639243E+01 -0.27069169024E+02 -0.12350933490E+02  0.30535936372E+02  0.00000000000E+00 0. -1.
        -15    1    1    2    0    0  0.43980169699E+01  0.23758111387E+01  0.14463561139E+03  0.14473287410E+03  0.17770000000E+01 0. -1.
         15    1    1    2    0    0  0.17776954518E+01 -0.29004427780E+01  0.27140615894E+02  0.27410646281E+02  0.17770000000E+01 0.  1.
</event>
<event>
 7    1  0.1421899E-005  0.1936968E+03  0.7546771E-02  0.1059876E+00
        -11   -1    0    0    0    0  0.00000000000E+00  0.00000000000E+00  0.18250000000E+03  0.18250000000E+03  0.00000000000E+00 0.  1.
         11   -1    0    0    0    0 -0.00000000000E+00 -0.00000000000E+00 -0.18250000000E+03  0.18250000000E+03  0.00000000000E+00 0. -1.
         23    2    1    2    0    0 -0.57272353934E+01  0.14179104024E+02  0.17019233102E+03  0.19369682785E+03  0.91209557431E+02 0.  0.
        -11    1    3    3    0    0  0.58059665094E+00 -0.16570090514E+02 -0.37050274260E+01  0.16989179508E+02  0.00000000000E+00 0. -1.
         11    1    3    3    0    0 -0.63078320443E+01  0.30749194538E+02  0.17389735845E+03  0.17670764835E+03  0.00000000000E+00 0.  1.
        -15    1    1    2    0    0  0.67877403766E+01 -0.40033692421E+01 -0.10263843056E+03  0.10295584268E+03  0.17770000000E+01 0. -1.
         15    1    1    2    0    0 -0.10605049833E+01 -0.10175734782E+02 -0.67553900457E+02  0.68347329466E+02  0.17770000000E+01 0.  1.
</event>
<event>
 7    1  0.1421899E-005  0.1849467E+03  0.7546771E-02  0.1066524E+00
        -11   -1    0    0    0    0  0.00000000000E+00  0.00000000000E+00  0.18250000000E+03  0.18250000000E+03  0.00000000000E+00 0.  1.
         11   -1    0    0    0    0 -0.00000000000E+00 -0.00000000000E+00 -0.18250000000E+03  0.18250000000E+03  0.00000000000E+00 0. -1.
         23    2    1    2    0    0 -0.15693733958E+02  0.11870302851E+02  0.15922648636E+03  0.18494669389E+03  0.92005479450E+02 0.  0.
        -11    1    3    3    0    0  0.11223164715E+01 -0.39308914307E+02  0.54883378401E+02  0.67517668524E+02  0.00000000000E+00 0. -1.
         11    1    3    3    0    0 -0.16816050429E+02  0.51179217158E+02  0.10434310796E+03  0.11742902537E+03  0.00000000000E+00 0.  1.
        -15    1    1    2    0    0 -0.19275721588E+02 -0.26834298146E+02 -0.12344154635E+03  0.12779908487E+03  0.17770000000E+01 0. -1.
         15    1    1    2    0    0  0.34969455545E+02  0.14963995295E+02 -0.35784940011E+02  0.52254221235E+02  0.17770000000E+01 0.  1.
</event>
<event>
 7    1  0.1421899E-005  0.1925417E+03  0.7546771E-02  0.1060731E+00
        -11   -1    0    0    0    0  0.00000000000E+00  0.00000000000E+00  0.18250000000E+03  0.18250000000E+03  0.00000000000E+00 0. -1.
         11   -1    0    0    0    0 -0.00000000000E+00 -0.00000000000E+00 -0.18250000000E+03  0.18250000000E+03  0.00000000000E+00 0.  1.
         23    2    1    2    0    0  0.13579811578E+03  0.27587629045E+02  0.98652179724E+02  0.19254165444E+03  0.90209925191E+02 0.  0.
        -11    1    3    3    0    0  0.96126991418E+02  0.50099459522E+02  0.99179966058E+02  0.14692521904E+03  0.00000000000E+00 0. -1.
         11    1    3    3    0    0  0.39671124362E+02 -0.22511830478E+02 -0.52778633388E+00  0.45616435393E+02  0.00000000000E+00 0.  1.
        -15    1    1    2    0    0 -0.23117804794E+02  0.34271399951E+01 -0.25179748029E+02  0.34399936437E+02  0.17770000000E+01 0. -1.
         15    1    1    2    0    0 -0.11268031099E+03 -0.31014769040E+02 -0.73472431695E+02  0.13805840913E+03  0.17770000000E+01 0.  1.
</event>
<event>
 7    1  0.1421899E-005  0.1943408E+03  0.7546771E-02  0.1059402E+00
        -11   -1    0    0    0    0  0.00000000000E+00  0.00000000000E+00  0.18250000000E+03  0.18250000000E+03  0.00000000000E+00 0.  1.
         11   -1    0    0    0    0 -0.00000000000E+00 -0.00000000000E+00 -0.18250000000E+03  0.18250000000E+03  0.00000000000E+00 0. -1.
         23    2    1    2    0    0  0.11595481511E+01  0.23606791659E+01 -0.17056897180E+03  0.19434077649E+03  0.93100192851E+02 0.  0.
        -11    1    3    3    0    0  0.15235036604E+02 -0.41689121956E+02 -0.61236660068E+02  0.75630799057E+02  0.00000000000E+00 0.  1.
         11    1    3    3    0    0 -0.14075488453E+02  0.44049801122E+02 -0.10933231173E+03  0.11870997744E+03  0.00000000000E+00 0. -1.
        -15    1    1    2    0    0  0.11036290820E+01 -0.97329630482E+00  0.82801314190E+02  0.82833451356E+02  0.17770000000E+01 0.  1.
         15    1    1    2    0    0 -0.22631772331E+01 -0.13873828611E+01  0.87767657611E+02  0.87825772151E+02  0.17770000000E+01 0.  1.
</event>
<event>
 7    1  0.1421899E-005  0.1848032E+03  0.7546771E-02  0.1066636E+00
        -11   -1    0    0    0    0  0.00000000000E+00  0.00000000000E+00  0.18250000000E+03  0.18250000000E+03  0.00000000000E+00 0. -1.
         11   -1    0    0    0    0 -0.00000000000E+00 -0.00000000000E+00 -0.18250000000E+03  0.18250000000E+03  0.00000000000E+00 0. -1.
         23    2    1    2    0    0 -0.74004883714E+01 -0.25850303395E+02 -0.16866716352E+03  0.18019679710E+03  0.57439256808E+02 0.  0.
        -11    1    3    3    0    0  0.70823135385E+01  0.91054586010E+01 -0.56477050726E+01  0.12843874570E+02  0.00000000000E+00 0. -1.
         11    1    3    3    0    0 -0.14482801910E+02 -0.34955761997E+02 -0.16301945844E+03  0.16735292253E+03  0.00000000000E+00 0. -1.
        -15    1    1    2    0    0  0.21542699128E+02  0.36911495210E+02  0.54811945327E+02  0.69527357521E+02  0.17770000000E+01 0. -1.
         15    1    1    2    0    0 -0.14142210757E+02 -0.11061191814E+02  0.11385521819E+03  0.11527584538E+03  0.17770000000E+01 0.  1.
</event>
<event>
 7    1  0.1421899E-005  0.1939337E+03  0.7546771E-02  0.1059701E+00
        -11   -1    0    0    0    0  0.00000000000E+00  0.00000000000E+00  0.18250000000E+03  0.18250000000E+03  0.00000000000E+00 0.  1.
         11   -1    0    0    0    0 -0.00000000000E+00 -0.00000000000E+00 -0.18250000000E+03  0.18250000000E+03  0.00000000000E+00 0. -1.
         23    2    1    2    0    0  0.52513988752E+02 -0.36621969892E+02 -0.15699575450E+03  0.19393369385E+03  0.94147347203E+02 0.  0.
        -11    1    3    3    0    0  0.10941173223E+02 -0.33230549480E+02 -0.14691328313E+03  0.15102149334E+03  0.00000000000E+00 0. -1.
         11    1    3    3    0    0  0.41572815529E+02 -0.33914204120E+01 -0.10082471365E+02  0.42912200506E+02  0.00000000000E+00 0.  1.
        -15    1    1    2    0    0 -0.80235961039E+01 -0.10510530450E+01  0.10418486753E+02  0.13311100712E+02  0.17770000000E+01 0. -1.
         15    1    1    2    0    0 -0.44490392648E+02  0.37673022937E+02  0.14657726775E+03  0.15775520544E+03  0.17770000000E+01 0.  1.
</event>
<event>
 7    1  0.1421899E-005  0.1927908E+03  0.7546771E-02  0.1060546E+00
        -11   -1    0    0    0    0  0.00000000000E+00  0.00000000000E+00  0.18250000000E+03  0.18250000000E+03  0.00000000000E+00 0. -1.
         11   -1    0    0    0    0 -0.00000000000E+00 -0.00000000000E+00 -0.18250000000E+03  0.18250000000E+03  0.00000000000E+00 0. -1.
         23    2    1    2    0    0  0.18283678290E+02 -0.12822591982E+01  0.17106593203E+03  0.19279080296E+03  0.86998870827E+02 0.  0.
        -11    1    3    3    0    0  0.10101861213E+02  0.19851025824E+02  0.16852094817E+03  0.16998653122E+03  0.00000000000E+00 0. -1.
         11    1    3    3    0    0  0.81818170771E+01 -0.21133285022E+02  0.25449838581E+01  0.22804271735E+02  0.00000000000E+00 0. -1.
        -15    1    1    2    0    0 -0.23155085119E+01  0.67910449781E+00 -0.48608772166E+02  0.48701059774E+02  0.17770000000E+01 0. -1.
         15    1    1    2    0    0 -0.15968169778E+02  0.60315470034E+00 -0.12245715986E+03  0.12350813727E+03  0.17770000000E+01 0. -1.
</event>
<event>
 7    1  0.1421899E-005  0.1904656E+03  0.7546771E-02  0.1062285E+00
        -11   -1    0    0    0    0  0.00000000000E+00  0.00000000000E+00  0.18250000000E+03  0.18250000000E+03  0.00000000000E+00 0.  1.
         11   -1    0    0    0    0 -0.00000000000E+00 -0.00000000000E+00 -0.18250000000E+03  0.18250000000E+03  0.00000000000E+00 0. -1.
         23    2    1    2    0    0 -0.48738561034E+02  0.65636218611E+02 -0.14628472373E+03  0.19046560290E+03  0.90522731777E+02 0.  0.
        -11    1    3    3    0    0 -0.39284283321E+02  0.85541042823E+02 -0.90891683569E+02  0.13085038428E+03  0.00000000000E+00 0.  1.
         11    1    3    3    0    0 -0.94542777131E+01 -0.19904824213E+02 -0.55393040158E+02  0.59615218627E+02  0.00000000000E+00 0. -1.
        -15    1    1    2    0    0 -0.59556652177E+01 -0.25578711330E+02  0.29931796830E+02  0.39859887255E+02  0.17770000000E+01 0. -1.
         15    1    1    2    0    0  0.54694226252E+02 -0.40057507281E+02  0.11635292690E+03  0.13467450984E+03  0.17770000000E+01 0.  1.
</event>
<event>
 7    1  0.1421899E-005  0.1892502E+03  0.7546771E-02  0.1063205E+00
        -11   -1    0    0    0    0  0.00000000000E+00  0.00000000000E+00  0.18250000000E+03  0.18250000000E+03  0.00000000000E+00 0.  1.
         11   -1    0    0    0    0 -0.00000000000E+00 -0.00000000000E+00 -0.18250000000E+03  0.18250000000E+03  0.00000000000E+00 0. -1.
         23    2    1    2    0    0 -0.50741939702E+01 -0.15531202299E+02 -0.16660607944E+03  0.18925015693E+03  0.88267040852E+02 0.  0.
        -11    1    3    3    0    0 -0.24284274843E+01 -0.17967946170E+02 -0.17716758842E+03  0.17809294971E+03  0.00000000000E+00 0. -1.
         11    1    3    3    0    0 -0.26457664859E+01  0.24367438705E+01  0.10561508979E+02  0.11157207218E+02  0.00000000000E+00 0.  1.
        -15    1    1    2    0    0 -0.49837311048E+01  0.47821932841E+01 -0.12495433348E+01  0.72405825648E+01  0.17770000000E+01 0. -1.
         15    1    1    2    0    0  0.10057925075E+02  0.10749009015E+02  0.16785562277E+03  0.16850926051E+03  0.17770000000E+01 0.  1.
</event>
<event>
 7    1  0.1421899E-005  0.1931255E+03  0.7546771E-02  0.1060298E+00
        -11   -1    0    0    0    0  0.00000000000E+00  0.00000000000E+00  0.18250000000E+03  0.18250000000E+03  0.00000000000E+00 0.  1.
         11   -1    0    0    0    0 -0.00000000000E+00 -0.00000000000E+00 -0.18250000000E+03  0.18250000000E+03  0.00000000000E+00 0.  1.
         23    2    1    2    0    0  0.10139482989E+02 -0.17321455364E+02  0.17046232282E+03  0.19312546847E+03  0.88527968108E+02 0.  0.
        -11    1    3    3    0    0  0.15328691142E+02 -0.44862966045E+02  0.15282892564E+03  0.16001354632E+03  0.00000000000E+00 0.  1.
         11    1    3    3    0    0 -0.51892081531E+01  0.27541510681E+02  0.17633397180E+02  0.33111922142E+02  0.00000000000E+00 0.  1.
        -15    1    1    2    0    0  0.76652535036E+00  0.35787688427E+01 -0.44180665494E+02  0.44367601693E+02  0.17770000000E+01 0.  1.
         15    1    1    2    0    0 -0.10906008339E+02  0.13742686521E+02 -0.12628165733E+03  0.12750692984E+03  0.17770000000E+01 0.  1.
</event>
<event>
 6    1  0.1421899E-005  0.1873442E+03  0.7546771E-02  0.1064663E+00
        -11   -1    0    0    0    0  0.00000000000E+00  0.00000000000E+00  0.18250000000E+03  0.18250000000E+03  0.00000000000E+00 0.  1.
         11   -1    0    0    0    0 -0.00000000000E+00 -0.00000000000E+00 -0.18250000000E+03  0.18250000000E+03  0.00000000000E+00 0. -1.
        -11    1    1    2    0    0 -0.93477370024E+01  0.62708570192E+02  0.45806702602E+02  0.78217638457E+02  0.00000000000E+00 0.  1.
         11    1    1    2    0    0 -0.66401031058E+01 -0.12914293234E+03 -0.12181785987E+03  0.17765578777E+03  0.00000000000E+00 0. -1.
        -15    1    1    2    0    0  0.13873350704E+02  0.10462748831E+02  0.40706238349E+01  0.17935068449E+02  0.17770000000E+01 0. -1.
         15    1    1    2    0    0  0.21144894039E+01  0.55971613321E+02  0.71940533436E+02  0.91191505324E+02  0.17770000000E+01 0.  1.
</event>
<event>
 7    1  0.1421899E-005  0.1847193E+03  0.7546771E-02  0.1066702E+00
        -11   -1    0    0    0    0  0.00000000000E+00  0.00000000000E+00  0.18250000000E+03  0.18250000000E+03  0.00000000000E+00 0. -1.
         11   -1    0    0    0    0 -0.00000000000E+00 -0.00000000000E+00 -0.18250000000E+03  0.18250000000E+03  0.00000000000E+00 0.  1.
         23    2    1    2    0    0  0.10943326965E+03 -0.33554325331E+02  0.10489950972E+03  0.18028071089E+03  0.91628021501E+02 0.  0.
        -11    1    3    3    0    0  0.12296799548E+03 -0.19428802525E+02  0.77610408523E+02  0.14670372112E+03  0.00000000000E+00 0.  1.
         11    1    3    3    0    0 -0.13534725828E+02 -0.14125522806E+02  0.27289101199E+02  0.33576989770E+02  0.00000000000E+00 0. -1.
        -15    1    1    2    0    0 -0.80084311288E+02 -0.27139630236E+02 -0.56656588065E+02  0.10179972075E+03  0.17770000000E+01 0. -1.
         15    1    1    2    0    0 -0.29348958360E+02  0.60693955567E+02 -0.48242921656E+02  0.82919568367E+02  0.17770000000E+01 0.  1.
</event>
<event>
 7    1  0.1421899E-005  0.3650000E+03  0.7546771E-02  0.9765871E-01
        -11   -1    0    0    0    0  0.00000000000E+00  0.00000000000E+00  0.18250000000E+03  0.18250000000E+03  0.00000000000E+00 0.  1.
         11   -1    0    0    0    0 -0.00000000000E+00 -0.00000000000E+00 -0.18250000000E+03  0.18250000000E+03  0.00000000000E+00 0. -1.
         23    2    1    2    0    0 -0.37858788064E+02  0.85167211369E+02  0.87696642781E+02  0.15869377141E+03  0.93841729538E+02 0.  0.
        -11    1    3    3    0    0 -0.19032511660E+02  0.62382489232E+02 -0.97232135696E+00  0.65228497389E+02  0.00000000000E+00 0.  1.
         11    1    3    3    0    0 -0.18826276404E+02  0.22784722137E+02  0.88668964138E+02  0.93465274019E+02  0.00000000000E+00 0. -1.
        -15    1    1    2    0    0 -0.54522971446E+02 -0.52171715004E+02 -0.11757240993E+01  0.75492928927E+02  0.17770000000E+01 0.  1.
         15    1    1    2    0    0  0.92381759511E+02 -0.32995496365E+02 -0.86520918682E+02  0.13081329966E+03  0.17770000000E+01 0. -1.
</event>
<event>
 7    1  0.1421899E-005  0.1953738E+03  0.7546771E-02  0.1058645E+00
        -11   -1    0    0    0    0  0.00000000000E+00  0.00000000000E+00  0.18250000000E+03  0.18250000000E+03  0.00000000000E+00 0. -1.
         11   -1    0    0    0    0 -0.00000000000E+00 -0.00000000000E+00 -0.18250000000E+03  0.18250000000E+03  0.00000000000E+00 0.  1.
         23    2    1    2    0    0 -0.30799388808E+01 -0.39013732826E+00 -0.16907250661E+03  0.19537382774E+03  0.97855923907E+02 0.  0.
        -11    1    3    3    0    0 -0.35361020166E+02 -0.11490349370E+02 -0.15334599413E+03  0.15778917514E+03  0.00000000000E+00 0.  1.
         11    1    3    3    0    0  0.32281081285E+02  0.11100212041E+02 -0.15726512482E+02  0.37584652601E+02  0.00000000000E+00 0. -1.
        -15    1    1    2    0    0 -0.29429618732E+01 -0.41324958450E+01  0.94616869394E+02  0.94769447870E+02  0.17770000000E+01 0.  1.
         15    1    1    2    0    0  0.60229007539E+01  0.45226331733E+01  0.74455637216E+02  0.74856724391E+02  0.17770000000E+01 0. -1.
</event>
<event>
 7    1  0.1421899E-005  0.1909304E+03  0.7546771E-02  0.1061935E+00
        -11   -1    0    0    0    0  0.00000000000E+00  0.00000000000E+00  0.18250000000E+03  0.18250000000E+03  0.00000000000E+00 0.  1.
         11   -1    0    0    0    0 -0.00000000000E+00 -0.00000000000E+00 -0.18250000000E+03  0.18250000000E+03  0.00000000000E+00 0. -1.
         23    2    1    2    0    0 -0.37843913548E+02 -0.83997790887E+02 -0.13937116724E+03  0.19093037608E+03  0.92424539954E+02 0.  0.
        -11    1    3    3    0    0 -0.30408423852E+02 -0.40306367893E+02 -0.65541206145E+01  0.50913966954E+02  0.00000000000E+00 0.  1.
         11    1    3    3    0    0 -0.74354896954E+01 -0.43691422994E+02 -0.13281704663E+03  0.14001640913E+03  0.00000000000E+00 0. -1.
        -15    1    1    2    0    0  0.14730632433E+02 -0.22237290584E+01  0.19775843469E+02  0.24822937311E+02  0.17770000000E+01 0. -1.
         15    1    1    2    0    0  0.23113281115E+02  0.86221519946E+02  0.11959532377E+03  0.14924668661E+03  0.17770000000E+01 0.  1.
</event>
<event>
 7    1  0.1421899E-005  0.1896064E+03  0.7546771E-02  0.1062935E+00
        -11   -1    0    0    0    0  0.00000000000E+00  0.00000000000E+00  0.18250000000E+03  0.18250000000E+03  0.00000000000E+00 0.  1.
         11   -1    0    0    0    0 -0.00000000000E+00 -0.00000000000E+00 -0.18250000000E+03  0.18250000000E+03  0.00000000000E+00 0.  1.
         23    2    1    2    0    0 -0.22924317762E+02  0.41001043849E+02 -0.14674109059E+03  0.18960638392E+03  0.11050349864E+03 0.  0.
        -11    1    3    3    0    0  0.23797755917E+02  0.63787326747E+02 -0.84363817964E+02  0.10840853297E+03  0.00000000000E+00 0.  1.
         11    1    3    3    0    0 -0.46722073678E+02 -0.22786282898E+02 -0.62377272630E+02  0.81197850944E+02  0.00000000000E+00 0.  1.
        -15    1    1    2    0    0  0.24282180736E+00 -0.21067619121E+02 -0.41101788869E+01  0.21539610891E+02  0.17770000000E+01 0.  1.
         15    1    1    2    0    0  0.22681495954E+02 -0.19933424728E+02  0.15085126948E+03  0.15385400519E+03  0.17770000000E+01 0. -1.
</event>
<event>
 7    1  0.1421899E-005  0.1933070E+03  0.7546771E-02  0.1060164E+00
        -11   -1    0    0    0    0  0.00000000000E+00  0.00000000000E+00  0.18250000000E+03  0.18250000000E+03  0.00000000000E+00 0. -1.
         11   -1    0    0    0    0 -0.00000000000E+00 -0.00000000000E+00 -0.18250000000E+03  0.18250000000E+03  0.00000000000E+00 0.  1.
         23    2    1    2    0    0 -0.17432494156E+01 -0.53127770766E+00 -0.17078325542E+03  0.19330700726E+03  0.90539259707E+02 0.  0.
        -11    1    3    3    0    0  0.20583845369E+02 -0.23758272193E+02 -0.16126459197E+02  0.35330056241E+02  0.00000000000E+00 0. -1.
         11    1    3    3    0    0 -0.22327094785E+02  0.23226994485E+02 -0.15465679622E+03  0.15797695102E+03  0.00000000000E+00 0.  1.
        -15    1    1    2    0    0  0.41962897846E+01 -0.57370333626E+01  0.36428187866E+02  0.37157677538E+02  0.17770000000E+01 0.  1.
         15    1    1    2    0    0 -0.24530403689E+01  0.62683110703E+01  0.13435506755E+03  0.13453531520E+03  0.17770000000E+01 0. -1.
</event>
<event>
 7    1  0.1421899E-005  0.1932801E+03  0.7546771E-02  0.1060184E+00
        -11   -1    0    0    0    0  0.00000000000E+00  0.00000000000E+00  0.18250000000E+03  0.18250000000E+03  0.00000000000E+00 0.  1.
         11   -1    0    0    0    0 -0.00000000000E+00 -0.00000000000E+00 -0.18250000000E+03  0.18250000000E+03  0.00000000000E+00 0. -1.
         23    2    1    2    0    0  0.42223761604E+02 -0.24765103824E+02  0.16423731635E+03  0.19328005287E+03  0.89370724187E+02 0.  0.
        -11    1    3    3    0    0 -0.23129788700E+02 -0.27794665715E+02  0.65879625453E+02  0.75150885673E+02  0.00000000000E+00 0. -1.
         11    1    3    3    0    0  0.65353550305E+02  0.30295618913E+01  0.98357690900E+02  0.11812916719E+03  0.00000000000E+00 0.  1.
        -15    1    1    2    0    0 -0.36035997921E+01  0.18383415851E+01 -0.25594875336E+02  0.25973463452E+02  0.17770000000E+01 0.  1.
         15    1    1    2    0    0 -0.38620161812E+02  0.22926762239E+02 -0.13864244102E+03  0.14574648368E+03  0.17770000000E+01 0. -1.
</event>
<event>
 7    1  0.1421899E-005  0.1928910E+03  0.7546771E-02  0.1060472E+00
        -11   -1    0    0    0    0  0.00000000000E+00  0.00000000000E+00  0.18250000000E+03  0.18250000000E+03  0.00000000000E+00 0. -1.
         11   -1    0    0    0    0 -0.00000000000E+00 -0.00000000000E+00 -0.18250000000E+03  0.18250000000E+03  0.00000000000E+00 0.  1.
         23    2    1    2    0    0  0.17823354346E+02  0.37539548581E+01  0.17104907500E+03  0.19289101290E+03  0.87277675626E+02 0.  0.
        -11    1    3    3    0    0  0.11433441384E+02  0.16574362225E+01 -0.77846059848E+01  0.13930928435E+02  0.00000000000E+00 0.  1.
         11    1    3    3    0    0  0.63899129618E+01  0.20965186355E+01  0.17883368098E+03  0.17896008446E+03  0.00000000000E+00 0. -1.
        -15    1    1    2    0    0 -0.12926149385E+02 -0.24956489546E+01 -0.10378253214E+03  0.10462927558E+03  0.17770000000E+01 0.  1.
         15    1    1    2    0    0 -0.48972049604E+01 -0.12583059034E+01 -0.67266542859E+02  0.67479711524E+02  0.17770000000E+01 0.  1.
</event>
<event>
 7    1  0.1421899E-005  0.1914314E+03  0.7546771E-02  0.1061560E+00
        -11   -1    0    0    0    0  0.00000000000E+00  0.00000000000E+00  0.18250000000E+03  0.18250000000E+03  0.00000000000E+00 0. -1.
         11   -1    0    0    0    0 -0.00000000000E+00 -0.00000000000E+00 -0.18250000000E+03  0.18250000000E+03  0.00000000000E+00 0.  1.
         23    2    1    2    0    0 -0.64094790389E+02  0.68274587269E+02  0.14212413137E+03  0.19143142160E+03  0.87619398763E+02 0.  0.
        -11    1    3    3    0    0 -0.62966722462E+02  0.58924280438E+02  0.15386250628E+03  0.17638182956E+03  0.00000000000E+00 0. -1.
         11    1    3    3    0    0 -0.11280679272E+01  0.93503068310E+01 -0.11738374910E+02  0.15049592041E+02  0.00000000000E+00 0.  1.
        -15    1    1    2    0    0  0.15219491182E+01 -0.20015378072E+02 -0.22669409244E+02  0.30331362201E+02  0.17770000000E+01 0. -1.
         15    1    1    2    0    0  0.62572841271E+02 -0.48259209197E+02 -0.11945472212E+03  0.14323721619E+03  0.17770000000E+01 0.  1.
</event>
<event>
 7    1  0.1421899E-005  0.1924471E+03  0.7546771E-02  0.1060802E+00
        -11   -1    0    0    0    0  0.00000000000E+00  0.00000000000E+00  0.18250000000E+03  0.18250000000E+03  0.00000000000E+00 0. -1.
         11   -1    0    0    0    0 -0.00000000000E+00 -0.00000000000E+00 -0.18250000000E+03  0.18250000000E+03  0.00000000000E+00 0. -1.
         23    2    1    2    0    0 -0.41878835319E+01 -0.15811392705E+02 -0.16848125220E+03  0.19244710758E+03  0.91555547976E+02 0.  0.
        -11    1    3    3    0    0  0.56869944254E+01  0.18870005918E+02  0.44659673966E+00  0.19713408574E+02  0.00000000000E+00 0. -1.
         11    1    3    3    0    0 -0.98748779574E+01 -0.34681398623E+02 -0.16892784894E+03  0.17273369900E+03  0.00000000000E+00 0. -1.
        -15    1    1    2    0    0  0.71308437667E+01  0.20718778252E+02  0.16286020072E+03  0.16433721250E+03  0.17770000000E+01 0. -1.
         15    1    1    2    0    0 -0.29429602348E+01 -0.49073855470E+01  0.56210514815E+01  0.82156799237E+01  0.17770000000E+01 0.  1.
</event>
<event>
 7    1  0.1421899E-005  0.2382289E+03  0.7546771E-02  0.1031123E+00
        -11   -1    0    0    0    0  0.00000000000E+00  0.00000000000E+00  0.18250000000E+03  0.18250000000E+03  0.00000000000E+00 0. -1.
         11   -1    0    0    0    0 -0.00000000000E+00 -0.00000000000E+00 -0.18250000000E+03  0.18250000000E+03  0.00000000000E+00 0.  1.
         23    2    1    2    0    0 -0.36188757001E+02 -0.69461650007E+02 -0.40417659273E+02  0.12677114910E+03  0.91119647211E+02 0.  0.
        -11    1    3    3    0    0  0.12203924912E+02 -0.17376539939E+02  0.23140811129E+02  0.31406640432E+02  0.00000000000E+00 0. -1.
         11    1    3    3    0    0 -0.48392681913E+02 -0.52085110068E+02 -0.63558470402E+02  0.95364508667E+02  0.00000000000E+00 0.  1.
        -15    1    1    2    0    0  0.45641644551E+01  0.73909297186E+01  0.12687485648E+03  0.12718429296E+03  0.17770000000E+01 0. -1.
         15    1    1    2    0    0  0.31624592546E+02  0.62070720288E+02 -0.86457197208E+02  0.11104455794E+03  0.17770000000E+01 0.  1.
</event>
<event>
 7    1  0.1421899E-005  0.1933846E+03  0.7546771E-02  0.1060106E+00
        -11   -1    0    0    0    0  0.00000000000E+00  0.00000000000E+00  0.18250000000E+03  0.18250000000E+03  0.00000000000E+00 0. -1.
         11   -1    0    0    0    0 -0.00000000000E+00 -0.00000000000E+00 -0.18250000000E+03  0.18250000000E+03  0.00000000000E+00 0.  1.
         23    2    1    2    0    0 -0.41100851877E+02  0.61663886210E+02  0.15282634682E+03  0.19338456533E+03  0.92466117783E+02 0.  0.
        -11    1    3    3    0    0  0.17148391428E+02  0.38371160294E+02  0.10910011272E+03  0.11691555870E+03  0.00000000000E+00 0.  1.
         11    1    3    3    0    0 -0.58249243305E+02  0.23292725916E+02  0.43726234101E+02  0.76469006629E+02  0.00000000000E+00 0. -1.
        -15    1    1    2    0    0  0.32387583437E+02 -0.26764078634E+02 -0.81020213805E+02  0.91283647167E+02  0.17770000000E+01 0.  1.
         15    1    1    2    0    0  0.87132684400E+01 -0.34899807576E+02 -0.71806133016E+02  0.80331787503E+02  0.17770000000E+01 0. -1.
</event>
<event>
 7    1  0.1421899E-005  0.1941029E+03  0.7546771E-02  0.1059577E+00
        -11   -1    0    0    0    0  0.00000000000E+00  0.00000000000E+00  0.18250000000E+03  0.18250000000E+03  0.00000000000E+00 0.  1.
         11   -1    0    0    0    0 -0.00000000000E+00 -0.00000000000E+00 -0.18250000000E+03  0.18250000000E+03  0.00000000000E+00 0. -1.
         23    2    1    2    0    0 -0.40958897635E+01 -0.13054987188E+00 -0.17080405047E+03  0.19410294057E+03  0.92114789935E+02 0.  0.
        -11    1    3    3    0    0  0.33564836567E+01  0.45557073571E+02 -0.91746092021E+02  0.10248930840E+03  0.00000000000E+00 0. -1.
         11    1    3    3    0    0 -0.74523734201E+01 -0.45687623443E+02 -0.79057958447E+02  0.91613632169E+02  0.00000000000E+00 0.  1.
        -15    1    1    2    0    0  0.26478257869E+01 -0.57225415781E+00  0.98642843002E+02  0.98696031637E+02  0.17770000000E+01 0.  1.
         15    1    1    2    0    0  0.14480639766E+01  0.70280402969E+00  0.72161207466E+02  0.72201027795E+02  0.17770000000E+01 0.  1.
</event>
<event>
 7    1  0.1421899E-005  0.1945676E+03  0.7546771E-02  0.1059235E+00
        -11   -1    0    0    0    0  0.00000000000E+00  0.00000000000E+00  0.18250000000E+03  0.18250000000E+03  0.00000000000E+00 0. -1.
         11   -1    0    0    0    0 -0.00000000000E+00 -0.00000000000E+00 -0.18250000000E+03  0.18250000000E+03  0.00000000000E+00 0.  1.
         23    2    1    2    0    0  0.10619775679E+02 -0.15031125347E+01  0.16840673263E+03  0.19456756667E+03  0.96853866319E+02 0.  0.
        -11    1    3    3    0    0  0.49949885293E+01  0.31761665504E+02  0.11612484796E+02  0.34184837416E+02  0.00000000000E+00 0.  1.
         11    1    3    3    0    0  0.56247871499E+01 -0.33264778039E+02  0.15679424783E+03  0.16038272925E+03  0.00000000000E+00 0. -1.
        -15    1    1    2    0    0  0.59819929095E+01  0.51517188253E+01 -0.78478511659E+02  0.78894606705E+02  0.17770000000E+01 0. -1.
         15    1    1    2    0    0 -0.16601768589E+02 -0.36486062907E+01 -0.89928220970E+02  0.91537826629E+02  0.17770000000E+01 0.  1.
</event>
<event>
 7    1  0.1421899E-005  0.1945826E+03  0.7546771E-02  0.1059224E+00
        -11   -1    0    0    0    0  0.00000000000E+00  0.00000000000E+00  0.18250000000E+03  0.18250000000E+03  0.00000000000E+00 0.  1.
         11   -1    0    0    0    0 -0.00000000000E+00 -0.00000000000E+00 -0.18250000000E+03  0.18250000000E+03  0.00000000000E+00 0. -1.
         23    2    1    2    0    0  0.14831091080E+02 -0.12469048935E+02 -0.16920102194E+03  0.19458257151E+03  0.94116698113E+02 0.  0.
        -11    1    3    3    0    0 -0.13746140451E+02 -0.62514058134E+01 -0.16422336121E+03  0.16491618726E+03  0.00000000000E+00 0. -1.
         11    1    3    3    0    0  0.28577231531E+02 -0.62176431216E+01 -0.49776607296E+01  0.29666384247E+02  0.00000000000E+00 0.  1.
        -15    1    1    2    0    0 -0.11231664443E+01  0.25869454879E+01  0.27848858546E+02  0.28047645911E+02  0.17770000000E+01 0.  1.
         15    1    1    2    0    0 -0.13707924636E+02  0.98821034470E+01  0.14135216340E+03  0.14236978258E+03  0.17770000000E+01 0.  1.
</event>
<event>
 7    1  0.1421899E-005  0.1928216E+03  0.7546771E-02  0.1060523E+00
        -11   -1    0    0    0    0  0.00000000000E+00  0.00000000000E+00  0.18250000000E+03  0.18250000000E+03  0.00000000000E+00 0.  1.
         11   -1    0    0    0    0 -0.00000000000E+00 -0.00000000000E+00 -0.18250000000E+03  0.18250000000E+03  0.00000000000E+00 0. -1.
         23    2    1    2    0    0 -0.12608775796E+03 -0.56507428698E+02 -0.96529754650E+02  0.19282158268E+03  0.93653387596E+02 0.  0.
        -11    1    3    3    0    0 -0.37412314284E+02 -0.84100269799E+01  0.16126950394E+02  0.41599138728E+02  0.00000000000E+00 0.  1.
         11    1    3    3    0    0 -0.88675443680E+02 -0.48097401718E+02 -0.11265670504E+03  0.15122244395E+03  0.00000000000E+00 0. -1.
        -15    1    1    2    0    0  0.10383148360E+03  0.60014669076E+02  0.79874100426E+02  0.14410332105E+03  0.17770000000E+01 0. -1.
         15    1    1    2    0    0  0.22256274366E+02 -0.35072403787E+01  0.16655654223E+02  0.28075096266E+02  0.17770000000E+01 0.  1.
</event>
<event>
 7    1  0.1421899E-005  0.1931190E+03  0.7546771E-02  0.1060303E+00
        -11   -1    0    0    0    0  0.00000000000E+00  0.00000000000E+00  0.18250000000E+03  0.18250000000E+03  0.00000000000E+00 0.  1.
         11   -1    0    0    0    0 -0.00000000000E+00 -0.00000000000E+00 -0.18250000000E+03  0.18250000000E+03  0.00000000000E+00 0. -1.
         23    2    1    2    0    0  0.27317659798E+02  0.64513848696E+01 -0.16797165611E+03  0.19311901585E+03  0.91063725610E+02 0.  0.
        -11    1    3    3    0    0 -0.23194291434E+02  0.16477037008E+01 -0.69155816338E+01  0.24259335356E+02  0.00000000000E+00 0.  1.
         11    1    3    3    0    0  0.50511951231E+02  0.48036811688E+01 -0.16105607447E+03  0.16885968049E+03  0.00000000000E+00 0. -1.
        -15    1    1    2    0    0 -0.53256110719E+01 -0.69865256064E+01  0.16209241608E+02  0.18522173626E+02  0.17770000000E+01 0. -1.
         15    1    1    2    0    0 -0.21992048726E+02  0.53514073685E+00  0.15176241450E+03  0.15335881053E+03  0.17770000000E+01 0.  1.
</event>
<event>
 7    1  0.1421899E-005  0.1937560E+03  0.7546771E-02  0.1059832E+00
        -11   -1    0    0    0    0  0.00000000000E+00  0.00000000000E+00  0.18250000000E+03  0.18250000000E+03  0.00000000000E+00 0.  1.
         11   -1    0    0    0    0 -0.00000000000E+00 -0.00000000000E+00 -0.18250000000E+03  0.18250000000E+03  0.00000000000E+00 0. -1.
         23    2    1    2    0    0 -0.12005246390E+02 -0.72942801159E+01  0.17033919232E+03  0.19375600368E+03  0.91261251683E+02 0.  0.
        -11    1    3    3    0    0 -0.42829551593E+02 -0.27679010055E+02  0.68344836541E+02  0.85273177313E+02  0.00000000000E+00 0. -1.
         11    1    3    3    0    0  0.30824305203E+02  0.20384729939E+02  0.10199435578E+03  0.10848282636E+03  0.00000000000E+00 0.  1.
        -15    1    1    2    0    0  0.23721983090E+01  0.71666340669E+01 -0.80137446265E+02  0.80511837586E+02  0.17770000000E+01 0.  1.
         15    1    1    2    0    0  0.96330480805E+01  0.12764604899E+00 -0.90201746053E+02  0.90732158735E+02  0.17770000000E+01 0. -1.
</event>
<event>
 7    1  0.1421899E-005  0.1939678E+03  0.7546771E-02  0.1059676E+00
        -11   -1    0    0    0    0  0.00000000000E+00  0.00000000000E+00  0.18250000000E+03  0.18250000000E+03  0.00000000000E+00 0.  1.
         11   -1    0    0    0    0 -0.00000000000E+00 -0.00000000000E+00 -0.18250000000E+03  0.18250000000E+03  0.00000000000E+00 0. -1.
         23    2    1    2    0    0 -0.12563675417E+00 -0.15936469297E+03 -0.53273000439E+02  0.19396777168E+03  0.96893563898E+02 0.  0.
        -11    1    3    3    0    0  0.78879573639E+01 -0.17146971586E+03 -0.45881743946E+02  0.17767728543E+03  0.00000000000E+00 0.  1.
         11    1    3    3    0    0 -0.80135941181E+01  0.12105022890E+02 -0.73912564932E+01  0.16290486255E+02  0.00000000000E+00 0. -1.
        -15    1    1    2    0    0  0.20450561633E+00  0.14512495462E+03  0.37901464804E+02  0.15000324343E+03  0.17770000000E+01 0. -1.
         15    1    1    2    0    0 -0.78868862165E-01  0.14239738356E+02  0.15371535636E+02  0.21028984891E+02  0.17770000000E+01 0.  1.
</event>
<event>
 7    1  0.1421899E-005  0.1936629E+03  0.7546771E-02  0.1059901E+00
        -11   -1    0    0    0    0  0.00000000000E+00  0.00000000000E+00  0.18250000000E+03  0.18250000000E+03  0.00000000000E+00 0. -1.
         11   -1    0    0    0    0 -0.00000000000E+00 -0.00000000000E+00 -0.18250000000E+03  0.18250000000E+03  0.00000000000E+00 0.  1.
         23    2    1    2    0    0 -0.44758244130E+01 -0.20091885653E+02 -0.16977887619E+03  0.19366287502E+03  0.90866525671E+02 0.  0.
        -11    1    3    3    0    0 -0.42309948694E+02 -0.14002230151E+02 -0.13406984042E+03  0.14128310698E+03  0.00000000000E+00 0.  1.
         11    1    3    3    0    0  0.37834124281E+02 -0.60896555015E+01 -0.35709035765E+02  0.52379768036E+02  0.00000000000E+00 0. -1.
        -15    1    1    2    0    0  0.58085378715E+01  0.19396799630E+02  0.14004723605E+03  0.14151452577E+03  0.17770000000E+01 0. -1.
         15    1    1    2    0    0 -0.13327134584E+01  0.69508602273E+00  0.29731640134E+02  0.29822599213E+02  0.17770000000E+01 0.  1.
</event>
<event>
 7    1  0.1421899E-005  0.1931734E+03  0.7546771E-02  0.1060263E+00
        -11   -1    0    0    0    0  0.00000000000E+00  0.00000000000E+00  0.18250000000E+03  0.18250000000E+03  0.00000000000E+00 0.  1.
         11   -1    0    0    0    0 -0.00000000000E+00 -0.00000000000E+00 -0.18250000000E+03  0.18250000000E+03  0.00000000000E+00 0. -1.
         23    2    1    2    0    0 -0.13815886608E+02  0.96897764879E+01  0.16981743956E+03  0.19317343939E+03  0.90516542224E+02 0.  0.
        -11    1    3    3    0    0 -0.16760309567E+02  0.16657346948E+02  0.17940879289E+03  0.18095825527E+03  0.00000000000E+00 0.  1.
         11    1    3    3    0    0  0.29444229581E+01 -0.69675704600E+01 -0.95913533235E+01  0.12215184127E+02  0.00000000000E+00 0. -1.
        -15    1    1    2    0    0  0.12052688797E+02 -0.89801556766E+01 -0.56880728550E+02  0.58859880331E+02  0.17770000000E+01 0.  1.
         15    1    1    2    0    0  0.17631978112E+01 -0.70962081127E+00 -0.11293671101E+03  0.11296668027E+03  0.17770000000E+01 0. -1.
</event>
<event>
 7    1  0.1421899E-005  0.1934305E+03  0.7546771E-02  0.1060072E+00
        -11   -1    0    0    0    0  0.00000000000E+00  0.00000000000E+00  0.18250000000E+03  0.18250000000E+03  0.00000000000E+00 0.  1.
         11   -1    0    0    0    0 -0.00000000000E+00 -0.00000000000E+00 -0.18250000000E+03  0.18250000000E+03  0.00000000000E+00 0. -1.
         23    2    1    2    0    0 -0.27644962640E+01  0.99828725984E+01 -0.17068536428E+03  0.19343047387E+03  0.90413242694E+02 0.  0.
        -11    1    3    3    0    0 -0.27481989443E+02 -0.19531377421E+02 -0.23008465859E+02  0.40818181597E+02  0.00000000000E+00 0.  1.
         11    1    3    3    0    0  0.24717493179E+02  0.29514250019E+02 -0.14767689843E+03  0.15261229227E+03  0.00000000000E+00 0. -1.
        -15    1    1    2    0    0  0.16361896507E+01  0.20217580267E+01  0.11665918442E+02  0.12083708214E+02  0.17770000000E+01 0. -1.
         15    1    1    2    0    0  0.11283066133E+01 -0.12004630625E+02  0.15901944584E+03  0.15948581792E+03  0.17770000000E+01 0.  1.
</event>
<event>
 7    1  0.1421899E-005  0.1905883E+03  0.7546771E-02  0.1062193E+00
        -11   -1    0    0    0    0  0.00000000000E+00  0.00000000000E+00  0.18250000000E+03  0.18250000000E+03  0.00000000000E+00 0.  1.
         11   -1    0    0    0    0 -0.00000000000E+00 -0.00000000000E+00 -0.18250000000E+03  0.18250000000E+03  0.00000000000E+00 0. -1.
         23    2    1    2    0    0  0.80578002873E+02 -0.36870825541E+02 -0.14164819047E+03  0.19058830249E+03  0.91691978162E+02 0.  0.
        -11    1    3    3    0    0  0.23754139835E+02  0.69426734531E+01 -0.10896824939E+03  0.11174318436E+03  0.00000000000E+00 0. -1.
         11    1    3    3    0    0  0.56823863038E+02 -0.43813498994E+02 -0.32679941074E+02  0.78845118132E+02  0.00000000000E+00 0.  1.
        -15    1    1    2    0    0 -0.31128361835E+02 -0.96893496278E+01  0.58897036134E+02  0.67341495388E+02  0.17770000000E+01 0. -1.
         15    1    1    2    0    0 -0.49449641038E+02  0.46560175169E+02  0.82751154334E+02  0.10707020213E+03  0.17770000000E+01 0.  1.
</event>
<event>
 7    1  0.1421899E-005  0.3650000E+03  0.7546771E-02  0.9765871E-01
        -11   -1    0    0    0    0  0.00000000000E+00  0.00000000000E+00  0.18250000000E+03  0.18250000000E+03  0.00000000000E+00 0.  1.
         11   -1    0    0    0    0 -0.00000000000E+00 -0.00000000000E+00 -0.18250000000E+03  0.18250000000E+03  0.00000000000E+00 0. -1.
         23    2    1    2    0    0  0.73184575849E+01 -0.87118618733E+01  0.72573006677E+02  0.11645451524E+03  0.90362361978E+02 0.  0.
        -11    1    3    3    0    0  0.21741579445E+02 -0.41955487127E+02  0.17218595448E+02  0.50293530459E+02  0.00000000000E+00 0.  1.
         11    1    3    3    0    0 -0.14423121860E+02  0.33243625254E+02  0.55354411229E+02  0.66160984778E+02  0.00000000000E+00 0. -1.
        -15    1    1    2    0    0  0.18084966951E+02  0.45965803468E+02  0.77452527067E+02  0.91880208947E+02  0.17770000000E+01 0.  1.
         15    1    1    2    0    0 -0.25403424536E+02 -0.37253941594E+02 -0.15002553374E+03  0.15666527582E+03  0.17770000000E+01 0. -1.
</event>
<event>
 7    1  0.1421899E-005  0.1913701E+03  0.7546771E-02  0.1061606E+00
        -11   -1    0    0    0    0  0.00000000000E+00  0.00000000000E+00  0.18250000000E+03  0.18250000000E+03  0.00000000000E+00 0.  1.
         11   -1    0    0    0    0 -0.00000000000E+00 -0.00000000000E+00 -0.18250000000E+03  0.18250000000E+03  0.00000000000E+00 0. -1.
         23    2    1    2    0    0  0.77169368437E+02  0.23288199049E+02 -0.14780648099E+03  0.19137012756E+03  0.90985263966E+02 0.  0.
        -11    1    3    3    0    0  0.57989302510E+02  0.57922628407E+02 -0.10027887924E+03  0.12951310246E+03  0.00000000000E+00 0.  1.
         11    1    3    3    0    0  0.19180065927E+02 -0.34634429357E+02 -0.47527601748E+02  0.61857025097E+02  0.00000000000E+00 0. -1.
        -15    1    1    2    0    0 -0.35890152508E+02 -0.13512292476E+02  0.11095696346E+03  0.11741077704E+03  0.17770000000E+01 0.  1.
         15    1    1    2    0    0 -0.41279215929E+02 -0.97759065736E+01  0.36849517525E+02  0.56219095402E+02  0.17770000000E+01 0. -1.
</event>
<event>
 7    1  0.1421899E-005  0.1938983E+03  0.7546771E-02  0.1059727E+00
        -11   -1    0    0    0    0  0.00000000000E+00  0.00000000000E+00  0.18250000000E+03  0.18250000000E+03  0.00000000000E+00 0. -1.
         11   -1    0    0    0    0 -0.00000000000E+00 -0.00000000000E+00 -0.18250000000E+03  0.18250000000E+03  0.00000000000E+00 0. -1.
         23    2    1    2    0    0  0.32975915567E+01  0.13588982225E+02 -0.17036754021E+03  0.19389827650E+03  0.91519988663E+02 0.  0.
        -11    1    3    3    0    0 -0.13591511851E+02  0.20379968280E+01  0.69522614259E+01  0.15401836397E+02  0.00000000000E+00 0. -1.
         11    1    3    3    0    0  0.16889103408E+02  0.11550985397E+02 -0.17731980164E+03  0.17849644011E+03  0.00000000000E+00 0. -1.
        -15    1    1    2    0    0 -0.20956475588E+01 -0.80211726649E+01  0.13209726261E+03  0.13236908803E+03  0.17770000000E+01 0. -1.
         15    1    1    2    0    0 -0.12019439978E+01 -0.55678095604E+01  0.38270277608E+02  0.38732635463E+02  0.17770000000E+01 0. -1.
</event>
<event>
 7    1  0.1421899E-005  0.1913468E+03  0.7546771E-02  0.1061623E+00
        -11   -1    0    0    0    0  0.00000000000E+00  0.00000000000E+00  0.18250000000E+03  0.18250000000E+03  0.00000000000E+00 0.  1.
         11   -1    0    0    0    0 -0.00000000000E+00 -0.00000000000E+00 -0.18250000000E+03  0.18250000000E+03  0.00000000000E+00 0. -1.
         23    2    1    2    0    0 -0.12417605861E+02  0.13992937477E+02 -0.16684313924E+03  0.19134682703E+03  0.91798561361E+02 0.  0.
        -11    1    3    3    0    0  0.25496481484E+02 -0.18375728864E+02 -0.22540468517E+02  0.38675712020E+02  0.00000000000E+00 0.  1.
         11    1    3    3    0    0 -0.37914087345E+02  0.32368666340E+02 -0.14430267072E+03  0.15267111501E+03  0.00000000000E+00 0. -1.
        -15    1    1    2    0    0  0.16657359152E+02  0.70215297140E+01  0.29558375641E+02  0.34693296081E+02  0.17770000000E+01 0. -1.
         15    1    1    2    0    0 -0.42397532912E+01 -0.21014467191E+02  0.13728476360E+03  0.13895987689E+03  0.17770000000E+01 0.  1.
</event>
<event>
 7    1  0.1421899E-005  0.1868777E+03  0.7546771E-02  0.1065023E+00
        -11   -1    0    0    0    0  0.00000000000E+00  0.00000000000E+00  0.18250000000E+03  0.18250000000E+03  0.00000000000E+00 0.  1.
         11   -1    0    0    0    0 -0.00000000000E+00 -0.00000000000E+00 -0.18250000000E+03  0.18250000000E+03  0.00000000000E+00 0. -1.
         23    2    1    2    0    0  0.99365533028E+02 -0.63441205819E+01  0.12814031422E+03  0.18687774017E+03  0.92680055150E+02 0.  0.
        -11    1    3    3    0    0  0.97337617583E+02 -0.32506900189E+02  0.73391673170E+02  0.12616516178E+03  0.00000000000E+00 0.  1.
         11    1    3    3    0    0  0.20279154450E+01  0.26162779607E+02  0.54748641047E+02  0.60712578386E+02  0.00000000000E+00 0. -1.
        -15    1    1    2    0    0 -0.58771849006E+02  0.39705187019E+02 -0.78591878890E+02  0.10587952242E+03  0.17770000000E+01 0. -1.
         15    1    1    2    0    0 -0.40593684022E+02 -0.33361066437E+02 -0.49548435326E+02  0.72242737410E+02  0.17770000000E+01 0.  1.
</event>
<event>
 7    1  0.1421899E-005  0.1926039E+03  0.7546771E-02  0.1060685E+00
        -11   -1    0    0    0    0  0.00000000000E+00  0.00000000000E+00  0.18250000000E+03  0.18250000000E+03  0.00000000000E+00 0. -1.
         11   -1    0    0    0    0 -0.00000000000E+00 -0.00000000000E+00 -0.18250000000E+03  0.18250000000E+03  0.00000000000E+00 0.  1.
         23    2    1    2    0    0 -0.47066339601E+02  0.30726486180E+02  0.15769358379E+03  0.19260388194E+03  0.95234613943E+02 0.  0.
        -11    1    3    3    0    0 -0.10051444775E+02 -0.17785392337E+02 -0.30612890798E+01  0.20657279915E+02  0.00000000000E+00 0.  1.
         11    1    3    3    0    0 -0.37014894826E+02  0.48511878517E+02  0.16075487287E+03  0.17194660202E+03  0.00000000000E+00 0. -1.
        -15    1    1    2    0    0  0.18360766097E+02 -0.41885290631E+01 -0.14175040824E+02  0.23637914856E+02  0.17770000000E+01 0. -1.
         15    1    1    2    0    0  0.28705573505E+02 -0.26537957117E+02 -0.14351854296E+03  0.14875820321E+03  0.17770000000E+01 0.  1.
</event>
<event>
 7    1  0.1421899E-005  0.1920600E+03  0.7546771E-02  0.1061090E+00
        -11   -1    0    0    0    0  0.00000000000E+00  0.00000000000E+00  0.18250000000E+03  0.18250000000E+03  0.00000000000E+00 0.  1.
         11   -1    0    0    0    0 -0.00000000000E+00 -0.00000000000E+00 -0.18250000000E+03  0.18250000000E+03  0.00000000000E+00 0. -1.
         23    2    1    2    0    0 -0.15098778981E+03 -0.50139941809E+02 -0.61133970254E+02  0.19205997686E+03  0.88534433716E+02 0.  0.
        -11    1    3    3    0    0 -0.14153160388E+03 -0.64168530950E+02 -0.72702609382E+02  0.17156475358E+03  0.00000000000E+00 0. -1.
         11    1    3    3    0    0 -0.94561859324E+01  0.14028589141E+02  0.11568639128E+02  0.20495223271E+02  0.00000000000E+00 0.  1.
        -15    1    1    2    0    0  0.12287040215E+03  0.36052277606E+02  0.37129278392E+02  0.13333657971E+03  0.17770000000E+01 0.  1.
         15    1    1    2    0    0  0.28117387664E+02  0.14087664203E+02  0.24004691863E+02  0.39603443438E+02  0.17770000000E+01 0. -1.
</event>
<event>
 7    1  0.1421899E-005  0.1937491E+03  0.7546771E-02  0.1059837E+00
        -11   -1    0    0    0    0  0.00000000000E+00  0.00000000000E+00  0.18250000000E+03  0.18250000000E+03  0.00000000000E+00 0. -1.
         11   -1    0    0    0    0 -0.00000000000E+00 -0.00000000000E+00 -0.18250000000E+03  0.18250000000E+03  0.00000000000E+00 0.  1.
         23    2    1    2    0    0 -0.11180487904E+03 -0.99076403137E+02 -0.80467287820E+02  0.19374913069E+03  0.93526876350E+02 0.  0.
        -11    1    3    3    0    0 -0.12686018528E+03 -0.95997022094E+02 -0.80688776053E+02  0.17838052989E+03  0.00000000000E+00 0. -1.
         11    1    3    3    0    0  0.15055306245E+02 -0.30793810430E+01  0.22148823291E+00  0.15368600808E+02  0.00000000000E+00 0.  1.
        -15    1    1    2    0    0  0.20544232281E+02  0.97570254782E+01  0.18130850949E+02  0.29140187221E+02  0.17770000000E+01 0. -1.
         15    1    1    2    0    0  0.91260646758E+02  0.89319377659E+02  0.62336436872E+02  0.14211068209E+03  0.17770000000E+01 0.  1.
</event>
<event>
 7    1  0.1421899E-005  0.1926733E+03  0.7546771E-02  0.1060633E+00
        -11   -1    0    0    0    0  0.00000000000E+00  0.00000000000E+00  0.18250000000E+03  0.18250000000E+03  0.00000000000E+00 0.  1.
         11   -1    0    0    0    0 -0.00000000000E+00 -0.00000000000E+00 -0.18250000000E+03  0.18250000000E+03  0.00000000000E+00 0. -1.
         23    2    1    2    0    0 -0.23566279488E+01 -0.85907812614E+00 -0.17026812020E+03  0.19267328633E+03  0.90141393364E+02 0.  0.
        -11    1    3    3    0    0 -0.13749957810E+02  0.13581287156E+02 -0.17300135480E+03  0.17407751568E+03  0.00000000000E+00 0. -1.
         11    1    3    3    0    0  0.11393329861E+02 -0.14440365282E+02  0.27332346005E+01  0.18595770653E+02  0.00000000000E+00 0.  1.
        -15    1    1    2    0    0  0.12496469821E+02 -0.61878483615E+01  0.86534217893E+02  0.87668579438E+02  0.17770000000E+01 0.  1.
         15    1    1    2    0    0 -0.10139841872E+02  0.70469264876E+01  0.83733902311E+02  0.84658134230E+02  0.17770000000E+01 0. -1.
</event>
<event>
 7    1  0.1421899E-005  0.1923830E+03  0.7546771E-02  0.1060849E+00
        -11   -1    0    0    0    0  0.00000000000E+00  0.00000000000E+00  0.18250000000E+03  0.18250000000E+03  0.00000000000E+00 0. -1.
         11   -1    0    0    0    0 -0.00000000000E+00 -0.00000000000E+00 -0.18250000000E+03  0.18250000000E+03  0.00000000000E+00 0.  1.
         23    2    1    2    0    0  0.65817211330E+02  0.39325412964E+02 -0.15373571026E+03  0.19238299213E+03  0.86591879764E+02 0.  0.
        -11    1    3    3    0    0 -0.18580293156E+02  0.10440064675E+02 -0.10792131785E+02  0.23889168103E+02  0.00000000000E+00 0. -1.
         11    1    3    3    0    0  0.84397504487E+02  0.28885348289E+02 -0.14294357847E+03  0.16849382403E+03  0.00000000000E+00 0.  1.
        -15    1    1    2    0    0 -0.27926235281E+02 -0.75339228734E+01  0.54653076650E+02  0.61860739789E+02  0.17770000000E+01 0.  1.
         15    1    1    2    0    0 -0.37890976049E+02 -0.31791490091E+02  0.99082633605E+02  0.11075626808E+03  0.17770000000E+01 0. -1.
</event>
<event>
 7    1  0.1421899E-005  0.1928645E+03  0.7546771E-02  0.1060492E+00
        -11   -1    0    0    0    0  0.00000000000E+00  0.00000000000E+00  0.18250000000E+03  0.18250000000E+03  0.00000000000E+00 0. -1.
         11   -1    0    0    0    0 -0.00000000000E+00 -0.00000000000E+00 -0.18250000000E+03  0.18250000000E+03  0.00000000000E+00 0.  1.
         23    2    1    2    0    0 -0.15342510302E+02  0.78895627904E+01 -0.17062009722E+03  0.19286446117E+03  0.88248767600E+02 0.  0.
        -11    1    3    3    0    0  0.16345925665E+02 -0.39771548595E+01  0.20162573206E+01  0.16943209265E+02  0.00000000000E+00 0. -1.
         11    1    3    3    0    0 -0.31688435967E+02  0.11866717650E+02 -0.17263635454E+03  0.17592125191E+03  0.00000000000E+00 0.  1.
        -15    1    1    2    0    0  0.14833249962E+02 -0.33881256234E+01  0.15547565168E+03  0.15622848874E+03  0.17770000000E+01 0. -1.
         15    1    1    2    0    0  0.50926034013E+00 -0.45014371670E+01  0.15144445541E+02  0.15907050085E+02  0.17770000000E+01 0.  1.
</event>
<event>
 7    1  0.1421899E-005  0.1942445E+03  0.7546771E-02  0.1059472E+00
        -11   -1    0    0    0    0  0.00000000000E+00  0.00000000000E+00  0.18250000000E+03  0.18250000000E+03  0.00000000000E+00 0. -1.
         11   -1    0    0    0    0 -0.00000000000E+00 -0.00000000000E+00 -0.18250000000E+03  0.18250000000E+03  0.00000000000E+00 0. -1.
         23    2    1    2    0    0 -0.12372926226E+01 -0.71387433516E+01 -0.17050826440E+03  0.19424446044E+03  0.92765023758E+02 0.  0.
        -11    1    3    3    0    0 -0.22279494684E+02  0.18148697915E+02 -0.10040806029E+02  0.30439594365E+02  0.00000000000E+00 0. -1.
         11    1    3    3    0    0  0.21042202062E+02 -0.25287441267E+02 -0.16046745837E+03  0.16380486607E+03  0.00000000000E+00 0. -1.
        -15    1    1    2    0    0 -0.15474893182E+01  0.30913432096E+01  0.62186559785E+02  0.62307921430E+02  0.17770000000E+01 0. -1.
         15    1    1    2    0    0  0.27847819408E+01  0.40474001421E+01  0.10832170462E+03  0.10844761813E+03  0.17770000000E+01 0.  1.
</event>
<event>
 7    1  0.1421899E-005  0.1935487E+03  0.7546771E-02  0.1059985E+00
        -11   -1    0    0    0    0  0.00000000000E+00  0.00000000000E+00  0.18250000000E+03  0.18250000000E+03  0.00000000000E+00 0.  1.
         11   -1    0    0    0    0 -0.00000000000E+00 -0.00000000000E+00 -0.18250000000E+03  0.18250000000E+03  0.00000000000E+00 0. -1.
         23    2    1    2    0    0 -0.14356278363E+02  0.42149872426E+01  0.16870246070E+03  0.19354865498E+03  0.93684004774E+02 0.  0.
        -11    1    3    3    0    0  0.36034793107E+02  0.18847338851E+02  0.55777776171E+02  0.69028174035E+02  0.00000000000E+00 0. -1.
         11    1    3    3    0    0 -0.50391071470E+02 -0.14632351609E+02  0.11292468453E+03  0.12452048094E+03  0.00000000000E+00 0.  1.
        -15    1    1    2    0    0  0.20440428273E+02  0.27637059200E+01 -0.12859198309E+03  0.13024785996E+03  0.17770000000E+01 0. -1.
         15    1    1    2    0    0 -0.60841499104E+01 -0.69786931626E+01 -0.40110477609E+02  0.41203485064E+02  0.17770000000E+01 0.  1.
</event>
<event>
 7    1  0.1421899E-005  0.1847384E+03  0.7546771E-02  0.1066687E+00
        -11   -1    0    0    0    0  0.00000000000E+00  0.00000000000E+00  0.18250000000E+03  0.18250000000E+03  0.00000000000E+00 0. -1.
         11   -1    0    0    0    0 -0.00000000000E+00 -0.00000000000E+00 -0.18250000000E+03  0.18250000000E+03  0.00000000000E+00 0.  1.
         23    2    1    2    0    0  0.15673785313E+01 -0.38071518073E+02 -0.15587646911E+03  0.18473836626E+03  0.91536294356E+02 0.  0.
        -11    1    3    3    0    0  0.19178897974E+02 -0.64549017729E+02 -0.10724479354E+03  0.12663274284E+03  0.00000000000E+00 0.  1.
         11    1    3    3    0    0 -0.17611519442E+02  0.26477499656E+02 -0.48631675569E+02  0.58105623427E+02  0.00000000000E+00 0. -1.
        -15    1    1    2    0    0  0.65720968320E+01  0.42884486421E+01 -0.88147530802E+01  0.11934858583E+02  0.17770000000E+01 0.  1.
         15    1    1    2    0    0 -0.81394753634E+01  0.33783069431E+02  0.16469122219E+03  0.16832677515E+03  0.17770000000E+01 0. -1.
</event>
<event>
 7    1  0.1421899E-005  0.1933883E+03  0.7546771E-02  0.1060104E+00
        -11   -1    0    0    0    0  0.00000000000E+00  0.00000000000E+00  0.18250000000E+03  0.18250000000E+03  0.00000000000E+00 0. -1.
         11   -1    0    0    0    0 -0.00000000000E+00 -0.00000000000E+00 -0.18250000000E+03  0.18250000000E+03  0.00000000000E+00 0.  1.
         23    2    1    2    0    0  0.44002679332E+02 -0.17599264372E+02 -0.16261383730E+03  0.19338828503E+03  0.93326302877E+02 0.  0.
        -11    1    3    3    0    0  0.28751844831E+02 -0.32499909032E+02 -0.16619632053E+03  0.17176766176E+03  0.00000000000E+00 0.  1.
         11    1    3    3    0    0  0.15250834500E+02  0.14900644660E+02  0.35824832322E+01  0.21620623264E+02  0.00000000000E+00 0. -1.
        -15    1    1    2    0    0 -0.26818749397E+02 -0.36735401784E+01  0.71823297762E+02  0.76775543287E+02  0.17770000000E+01 0. -1.
         15    1    1    2    0    0 -0.17183929935E+02  0.21272804551E+02  0.90790539539E+02  0.94836171687E+02  0.17770000000E+01 0.  1.
</event>
<event>
 7    1  0.1421899E-005  0.1969340E+03  0.7546771E-02  0.1057513E+00
        -11   -1    0    0    0    0  0.00000000000E+00  0.00000000000E+00  0.18250000000E+03  0.18250000000E+03  0.00000000000E+00 0.  1.
         11   -1    0    0    0    0 -0.00000000000E+00 -0.00000000000E+00 -0.18250000000E+03  0.18250000000E+03  0.00000000000E+00 0. -1.
         23    2    1    2    0    0 -0.48857962778E+02  0.61999513974E+02 -0.14554883804E+03  0.19693399957E+03  0.10661845839E+03 0.  0.
        -11    1    3    3    0    0 -0.60900348314E+02 -0.43209954038E+01 -0.93956125131E+02  0.11205033189E+03  0.00000000000E+00 0.  1.
         11    1    3    3    0    0  0.12042385536E+02  0.66320509378E+02 -0.51592712912E+02  0.84883667682E+02  0.00000000000E+00 0. -1.
        -15    1    1    2    0    0  0.25894993851E+02 -0.13668506845E+02  0.38773849323E+02  0.48620447409E+02  0.17770000000E+01 0. -1.
         15    1    1    2    0    0  0.22962968927E+02 -0.48331007129E+02  0.10677498872E+03  0.11944555302E+03  0.17770000000E+01 0.  1.
</event>
<event>
 7    1  0.1436952E-005  0.1938997E+03  0.7546771E-02  0.1059726E+00
        -11   -1    0    0    0    0  0.00000000000E+00  0.00000000000E+00  0.18250000000E+03  0.18250000000E+03  0.00000000000E+00 0. -1.
         11   -1    0    0    0    0 -0.00000000000E+00 -0.00000000000E+00 -0.18250000000E+03  0.18250000000E+03  0.00000000000E+00 0.  1.
         23    2    1    2    0    0 -0.10448883026E+02 -0.22774980642E+01  0.17057623720E+03  0.19389974922E+03  0.91577802415E+02 0.  0.
        -11    1    3    3    0    0  0.40696771423E+02  0.78743855338E-01  0.67797455700E+02  0.79074195565E+02  0.00000000000E+00 0.  1.
         11    1    3    3    0    0 -0.51145654448E+02 -0.23562419195E+01  0.10277878150E+03  0.11482555365E+03  0.00000000000E+00 0. -1.
        -15    1    1    2    0    0  0.98033999618E+00  0.27672748786E+01 -0.62596771120E+02  0.62690767744E+02  0.17770000000E+01 0. -1.
         15    1    1    2    0    0  0.94685430294E+01 -0.48977681442E+00 -0.10797946608E+03  0.10840948304E+03  0.17770000000E+01 0.  1.
</event>
<event>
 7    1  0.1421899E-005  0.1940252E+03  0.7546771E-02  0.1059634E+00
        -11   -1    0    0    0    0  0.00000000000E+00  0.00000000000E+00  0.18250000000E+03  0.18250000000E+03  0.00000000000E+00 0.  1.
         11   -1    0    0    0    0 -0.00000000000E+00 -0.00000000000E+00 -0.18250000000E+03  0.18250000000E+03  0.00000000000E+00 0.  1.
         23    2    1    2    0    0 -0.20396426078E+01  0.25020434227E+02 -0.16809332738E+03  0.19402518432E+03  0.93596063868E+02 0.  0.
        -11    1    3    3    0    0  0.20778184023E+02 -0.13064903057E+02 -0.50675431671E+01  0.25062015420E+02  0.00000000000E+00 0.  1.
         11    1    3    3    0    0 -0.22817826630E+02  0.38085337284E+02 -0.16302578421E+03  0.16896316890E+03  0.00000000000E+00 0.  1.
        -15    1    1    2    0    0  0.81198107439E+00 -0.56916256625E+01  0.98640306978E+01  0.11554685048E+02  0.17770000000E+01 0.  1.
         15    1    1    2    0    0  0.12276615335E+01 -0.19328808565E+02  0.15822929668E+03  0.15942013063E+03  0.17770000000E+01 0.  1.
</event>
<event>
 7    1  0.1421899E-005  0.1842570E+03  0.7546771E-02  0.1067065E+00
        -11   -1    0    0    0    0  0.00000000000E+00  0.00000000000E+00  0.18250000000E+03  0.18250000000E+03  0.00000000000E+00 0.  1.
         11   -1    0    0    0    0 -0.00000000000E+00 -0.00000000000E+00 -0.18250000000E+03  0.18250000000E+03  0.00000000000E+00 0. -1.
         23    2    1    2    0    0 -0.44151570759E+01  0.13937560207E+03 -0.76848292015E+02  0.18425697095E+03  0.92735749823E+02 0.  0.
        -11    1    3    3    0    0  0.97909292245E+01 -0.11434991348E+02 -0.16611859697E+01  0.15145324725E+02  0.00000000000E+00 0.  1.
         11    1    3    3    0    0 -0.14206086300E+02  0.15081059342E+03 -0.75187106045E+02  0.16911164623E+03  0.00000000000E+00 0. -1.
        -15    1    1    2    0    0 -0.51864770933E+00 -0.35753693959E+02  0.67703023299E+02  0.76586243673E+02  0.17770000000E+01 0.  1.
         15    1    1    2    0    0  0.49338047852E+01 -0.10362190811E+03  0.91452687159E+01  0.10415678537E+03  0.17770000000E+01 0. -1.
</event>
<event>
 7    1  0.1421899E-005  0.1923697E+03  0.7546771E-02  0.1060859E+00
        -11   -1    0    0    0    0  0.00000000000E+00  0.00000000000E+00  0.18250000000E+03  0.18250000000E+03  0.00000000000E+00 0.  1.
         11   -1    0    0    0    0 -0.00000000000E+00 -0.00000000000E+00 -0.18250000000E+03  0.18250000000E+03  0.00000000000E+00 0. -1.
         23    2    1    2    0    0  0.69252584216E+01  0.73298293515E-01 -0.17004787035E+03  0.19236965713E+03  0.89676319040E+02 0.  0.
        -11    1    3    3    0    0  0.46479450291E+02  0.10483820307E+02 -0.74475141944E+02  0.88412649294E+02  0.00000000000E+00 0. -1.
         11    1    3    3    0    0 -0.39554191870E+02 -0.10410522013E+02 -0.95572728411E+02  0.10395700784E+03  0.00000000000E+00 0.  1.
        -15    1    1    2    0    0 -0.38857947442E+01 -0.12678542214E+02  0.12517059705E+03  0.12588360071E+03  0.17770000000E+01 0.  1.
         15    1    1    2    0    0 -0.30394636774E+01  0.12605243921E+02  0.44877273309E+02  0.46746742158E+02  0.17770000000E+01 0. -1.
</event>
<event>
 7    1  0.1421899E-005  0.1904365E+03  0.7546771E-02  0.1062307E+00
        -11   -1    0    0    0    0  0.00000000000E+00  0.00000000000E+00  0.18250000000E+03  0.18250000000E+03  0.00000000000E+00 0.  1.
         11   -1    0    0    0    0 -0.00000000000E+00 -0.00000000000E+00 -0.18250000000E+03  0.18250000000E+03  0.00000000000E+00 0. -1.
         23    2    1    2    0    0  0.63442982458E+02  0.56276101132E+02  0.14411524531E+03  0.19043645691E+03  0.91130832363E+02 0.  0.
        -11    1    3    3    0    0  0.72555705042E+02  0.12075550899E+02  0.11571602367E+03  0.13711435883E+03  0.00000000000E+00 0.  1.
         11    1    3    3    0    0 -0.91127225835E+01  0.44200550232E+02  0.28399221644E+02  0.53322098081E+02  0.00000000000E+00 0. -1.
        -15    1    1    2    0    0 -0.14368765698E+02 -0.40318930500E+02 -0.90503117994E+02  0.10013016369E+03  0.17770000000E+01 0. -1.
         15    1    1    2    0    0 -0.49074216760E+02 -0.15957170631E+02 -0.53612127316E+02  0.74433379405E+02  0.17770000000E+01 0.  1.
</event>
<event>
 7    1  0.1421899E-005  0.2666300E+03  0.7546771E-02  0.1016132E+00
        -11   -1    0    0    0    0  0.00000000000E+00  0.00000000000E+00  0.18250000000E+03  0.18250000000E+03  0.00000000000E+00 0.  1.
         11   -1    0    0    0    0 -0.00000000000E+00 -0.00000000000E+00 -0.18250000000E+03  0.18250000000E+03  0.00000000000E+00 0. -1.
         23    2    1    2    0    0  0.24588333307E+02  0.27258248614E+02  0.51315712447E+01  0.98369953141E+02  0.91119242782E+02 0.  0.
        -11    1    3    3    0    0  0.51346786806E+02 -0.11293058340E+01  0.21994010313E+02  0.55870424525E+02  0.00000000000E+00 0.  1.
         11    1    3    3    0    0 -0.26758453499E+02  0.28387554448E+02 -0.16862439068E+02  0.42499528615E+02  0.00000000000E+00 0. -1.
        -15    1    1    2    0    0  0.96083932101E+02 -0.82154570557E+02  0.29019707867E+02  0.12971814308E+03  0.17770000000E+01 0.  1.
         15    1    1    2    0    0 -0.12067226541E+03  0.54896321943E+02 -0.34151279112E+02  0.13691190378E+03  0.17770000000E+01 0. -1.
</event>
<event>
 7    1  0.1421899E-005  0.1930278E+03  0.7546771E-02  0.1060370E+00
        -11   -1    0    0    0    0  0.00000000000E+00  0.00000000000E+00  0.18250000000E+03  0.18250000000E+03  0.00000000000E+00 0. -1.
         11   -1    0    0    0    0 -0.00000000000E+00 -0.00000000000E+00 -0.18250000000E+03  0.18250000000E+03  0.00000000000E+00 0.  1.
         23    2    1    2    0    0  0.20470197775E+02  0.57138310270E+02  0.15843414145E+03  0.19302777304E+03  0.92057202271E+02 0.  0.
        -11    1    3    3    0    0 -0.13271597081E+01  0.67130061035E+02  0.54834052839E+02  0.86688983142E+02  0.00000000000E+00 0.  1.
         11    1    3    3    0    0  0.21797357483E+02 -0.99917507647E+01  0.10360008861E+03  0.10633878990E+03  0.00000000000E+00 0. -1.
        -15    1    1    2    0    0 -0.24389085624E+02 -0.54814829963E+02 -0.13087190818E+03  0.14397953730E+03  0.17770000000E+01 0.  1.
         15    1    1    2    0    0  0.39188878493E+01 -0.23234803070E+01 -0.27562233265E+02  0.27992689658E+02  0.17770000000E+01 0. -1.
</event>
<event>
 7    1  0.1421899E-005  0.1932709E+03  0.7546771E-02  0.1060190E+00
        -11   -1    0    0    0    0  0.00000000000E+00  0.00000000000E+00  0.18250000000E+03  0.18250000000E+03  0.00000000000E+00 0.  1.
         11   -1    0    0    0    0 -0.00000000000E+00 -0.00000000000E+00 -0.18250000000E+03  0.18250000000E+03  0.00000000000E+00 0. -1.
         23    2    1    2    0    0 -0.63864283846E+01  0.52650250884E+01 -0.17075221301E+03  0.19327091820E+03  0.90159983462E+02 0.  0.
        -11    1    3    3    0    0 -0.44440190688E+02  0.88070135391E+01 -0.54354781485E+02  0.70759708211E+02  0.00000000000E+00 0. -1.
         11    1    3    3    0    0  0.38053762304E+02 -0.35419884507E+01 -0.11639743152E+03  0.12251120999E+03  0.00000000000E+00 0.  1.
        -15    1    1    2    0    0  0.45461472063E+01 -0.35770744826E+01  0.16576470421E+03  0.16587512715E+03  0.17770000000E+01 0.  1.
         15    1    1    2    0    0  0.18402811783E+01 -0.16879506058E+01  0.49875087918E+01  0.58539546472E+01  0.17770000000E+01 0.  1.
</event>
<event>
 7    1  0.1421899E-005  0.1933208E+03  0.7546771E-02  0.1060154E+00
        -11   -1    0    0    0    0  0.00000000000E+00  0.00000000000E+00  0.18250000000E+03  0.18250000000E+03  0.00000000000E+00 0.  1.
         11   -1    0    0    0    0 -0.00000000000E+00 -0.00000000000E+00 -0.18250000000E+03  0.18250000000E+03  0.00000000000E+00 0. -1.
         23    2    1    2    0    0 -0.38937603149E+02 -0.38991107816E+02  0.16228003506E+03  0.19332076494E+03  0.89452025967E+02 0.  0.
        -11    1    3    3    0    0 -0.56681065791E+02 -0.49920036796E+02  0.87010478151E+02  0.11521968843E+03  0.00000000000E+00 0.  1.
         11    1    3    3    0    0  0.17743462642E+02  0.10928928980E+02  0.75269556908E+02  0.78101076512E+02  0.00000000000E+00 0. -1.
        -15    1    1    2    0    0  0.63961349838E+01  0.68370879867E+01 -0.39728311912E+02  0.40855266628E+02  0.17770000000E+01 0.  1.
         15    1    1    2    0    0  0.32541468165E+02  0.32154019830E+02 -0.12255172315E+03  0.13082396843E+03  0.17770000000E+01 0. -1.
</event>
<event>
 7    1  0.1421899E-005  0.1891888E+03  0.7546771E-02  0.1063252E+00
        -11   -1    0    0    0    0  0.00000000000E+00  0.00000000000E+00  0.18250000000E+03  0.18250000000E+03  0.00000000000E+00 0.  1.
         11   -1    0    0    0    0 -0.00000000000E+00 -0.00000000000E+00 -0.18250000000E+03  0.18250000000E+03  0.00000000000E+00 0. -1.
         23    2    1    2    0    0  0.18960059239E+02 -0.12579748974E+02 -0.16440699491E+03  0.18918876419E+03  0.90801952565E+02 0.  0.
        -11    1    3    3    0    0 -0.38123690391E+01  0.29292654995E+02 -0.12155797998E+03  0.12509570853E+03  0.00000000000E+00 0.  1.
         11    1    3    3    0    0  0.22772428278E+02 -0.41872403968E+02 -0.42849014922E+02  0.64093055658E+02  0.00000000000E+00 0. -1.
        -15    1    1    2    0    0  0.78302789394E+00  0.19333178694E+02  0.13988693844E+02  0.23942143086E+02  0.17770000000E+01 0. -1.
         15    1    1    2    0    0 -0.19743087133E+02 -0.67534297200E+01  0.15041830106E+03  0.15186909273E+03  0.17770000000E+01 0.  1.
</event>
<event>
 7    1  0.1421899E-005  0.1888382E+03  0.7546771E-02  0.1063519E+00
        -11   -1    0    0    0    0  0.00000000000E+00  0.00000000000E+00  0.18250000000E+03  0.18250000000E+03  0.00000000000E+00 0. -1.
         11   -1    0    0    0    0 -0.00000000000E+00 -0.00000000000E+00 -0.18250000000E+03  0.18250000000E+03  0.00000000000E+00 0.  1.
         23    2    1    2    0    0  0.12247376740E+03  0.40323183770E+02  0.10270977349E+03  0.18883819724E+03  0.92112888975E+02 0.  0.
        -11    1    3    3    0    0  0.77848222252E+02 -0.54771581878E+01  0.13691306312E+02  0.79232549107E+02  0.00000000000E+00 0.  1.
         11    1    3    3    0    0  0.44625545150E+02  0.45800341958E+02  0.89018467182E+02  0.10960564813E+03  0.00000000000E+00 0. -1.
        -15    1    1    2    0    0 -0.40227203364E+02  0.92737672135E+01 -0.55319525337E+02  0.69048086587E+02  0.17770000000E+01 0. -1.
         15    1    1    2    0    0 -0.82246564037E+02 -0.49596950984E+02 -0.47390248157E+02  0.10711371617E+03  0.17770000000E+01 0.  1.
</event>
<event>
 7    1  0.1421899E-005  0.1891445E+03  0.7546771E-02  0.1063285E+00
        -11   -1    0    0    0    0  0.00000000000E+00  0.00000000000E+00  0.18250000000E+03  0.18250000000E+03  0.00000000000E+00 0.  1.
         11   -1    0    0    0    0 -0.00000000000E+00 -0.00000000000E+00 -0.18250000000E+03  0.18250000000E+03  0.00000000000E+00 0. -1.
         23    2    1    2    0    0 -0.41266792977E+01 -0.23324888933E-01 -0.16853389300E+03  0.18914447436E+03  0.85760883071E+02 0.  0.
        -11    1    3    3    0    0  0.22334381760E+02 -0.18540912777E+02 -0.14811877563E+03  0.15093628374E+03  0.00000000000E+00 0. -1.
         11    1    3    3    0    0 -0.26461061057E+02  0.18517587888E+02 -0.20415117378E+02  0.38208190627E+02  0.00000000000E+00 0.  1.
        -15    1    1    2    0    0 -0.41446119489E+01 -0.22209217814E+02  0.49126403072E+02  0.54101648514E+02  0.17770000000E+01 0. -1.
         15    1    1    2    0    0  0.82712912466E+01  0.22232542703E+02  0.11940748993E+03  0.12175387712E+03  0.17770000000E+01 0.  1.
</event>
<event>
 7    1  0.1421899E-005  0.1932634E+03  0.7546771E-02  0.1060196E+00
        -11   -1    0    0    0    0  0.00000000000E+00  0.00000000000E+00  0.18250000000E+03  0.18250000000E+03  0.00000000000E+00 0.  1.
         11   -1    0    0    0    0 -0.00000000000E+00 -0.00000000000E+00 -0.18250000000E+03  0.18250000000E+03  0.00000000000E+00 0. -1.
         23    2    1    2    0    0  0.24595978017E+01  0.60072245594E+02 -0.15898405073E+03  0.19326339491E+03  0.91978731845E+02 0.  0.
        -11    1    3    3    0    0  0.33613503389E+02 -0.82039044578E+01 -0.44393380437E+02  0.56284490626E+02  0.00000000000E+00 0. -1.
         11    1    3    3    0    0 -0.31153905588E+02  0.68276150051E+02 -0.11459067029E+03  0.13697890428E+03  0.00000000000E+00 0.  1.
        -15    1    1    2    0    0  0.52224611239E+00 -0.74646238642E+00 -0.12649104232E-01  0.19969567086E+01  0.17770000000E+01 0.  1.
         15    1    1    2    0    0 -0.29818439140E+01 -0.59325783207E+02  0.15899669984E+03  0.16973964838E+03  0.17770000000E+01 0.  1.
</event>
<event>
 7    1  0.1421899E-005  0.1940868E+03  0.7546771E-02  0.1059588E+00
        -11   -1    0    0    0    0  0.00000000000E+00  0.00000000000E+00  0.18250000000E+03  0.18250000000E+03  0.00000000000E+00 0.  1.
         11   -1    0    0    0    0 -0.00000000000E+00 -0.00000000000E+00 -0.18250000000E+03  0.18250000000E+03  0.00000000000E+00 0. -1.
         23    2    1    2    0    0 -0.89931652011E+02  0.10182726505E+02 -0.14416744001E+03  0.19408682966E+03  0.93241925846E+02 0.  0.
        -11    1    3    3    0    0 -0.60348323429E+02 -0.39262927444E+00 -0.15040139792E+03  0.16205756630E+03  0.00000000000E+00 0. -1.
         11    1    3    3    0    0 -0.29583328582E+02  0.10575355780E+02  0.62339579146E+01  0.32029263356E+02  0.00000000000E+00 0.  1.
        -15    1    1    2    0    0  0.24360313664E+01  0.11480772404E+01  0.82880510470E+01  0.88939220440E+01  0.17770000000E+01 0. -1.
         15    1    1    2    0    0  0.87495620644E+02 -0.11330803746E+02  0.13587938896E+03  0.16201924830E+03  0.17770000000E+01 0.  1.
</event>
<event>
 7    1  0.1421899E-005  0.1926351E+03  0.7546771E-02  0.1060662E+00
        -11   -1    0    0    0    0  0.00000000000E+00  0.00000000000E+00  0.18250000000E+03  0.18250000000E+03  0.00000000000E+00 0.  1.
         11   -1    0    0    0    0 -0.00000000000E+00 -0.00000000000E+00 -0.18250000000E+03  0.18250000000E+03  0.00000000000E+00 0. -1.
         23    2    1    2    0    0 -0.15613447543E+03 -0.33760343928E+02 -0.60860566997E+02  0.19263512855E+03  0.88806243569E+02 0.  0.
        -11    1    3    3    0    0 -0.14349954046E+03 -0.66168260591E+01 -0.24819493238E+02  0.14578034073E+03  0.00000000000E+00 0. -1.
         11    1    3    3    0    0 -0.12634934972E+02 -0.27143517868E+02 -0.36041073760E+02  0.46854787821E+02  0.00000000000E+00 0.  1.
        -15    1    1    2    0    0  0.16938527057E+02  0.53112252082E+01  0.14241777652E+02  0.22827806985E+02  0.17770000000E+01 0. -1.
         15    1    1    2    0    0  0.13919594837E+03  0.28449118719E+02  0.46618789346E+02  0.14953706446E+03  0.17770000000E+01 0.  1.
</event>
<event>
 7    1  0.1421899E-005  0.1888711E+03  0.7546771E-02  0.1063494E+00
        -11   -1    0    0    0    0  0.00000000000E+00  0.00000000000E+00  0.18250000000E+03  0.18250000000E+03  0.00000000000E+00 0. -1.
         11   -1    0    0    0    0 -0.00000000000E+00 -0.00000000000E+00 -0.18250000000E+03  0.18250000000E+03  0.00000000000E+00 0.  1.
         23    2    1    2    0    0  0.57153754859E+02 -0.75130580718E+02 -0.11725701852E+03  0.17612888051E+03  0.91438604009E+02 0.  0.
        -11    1    3    3    0    0  0.81125049943E+02 -0.50775196849E+02 -0.73855488981E+02  0.12088849241E+03  0.00000000000E+00 0.  1.
         11    1    3    3    0    0 -0.23971295084E+02 -0.24355383869E+02 -0.43401529537E+02  0.55240388102E+02  0.00000000000E+00 0. -1.
        -15    1    1    2    0    0 -0.60141912348E+02  0.93596843296E+02  0.12604188570E+03  0.16812832414E+03  0.17770000000E+01 0. -1.
         15    1    1    2    0    0  0.29881574889E+01 -0.18466262578E+02 -0.87848671856E+01  0.20742795357E+02  0.17770000000E+01 0.  1.
</event>
<event>
 7    1  0.1421899E-005  0.3650000E+03  0.7546771E-02  0.9765871E-01
        -11   -1    0    0    0    0  0.00000000000E+00  0.00000000000E+00  0.18250000000E+03  0.18250000000E+03  0.00000000000E+00 0.  1.
         11   -1    0    0    0    0 -0.00000000000E+00 -0.00000000000E+00 -0.18250000000E+03  0.18250000000E+03  0.00000000000E+00 0. -1.
         23    2    1    2    0    0 -0.27719995358E+02 -0.28843945237E+02 -0.81800443201E+02  0.12899488964E+03  0.91367377797E+02 0.  0.
        -11    1    3    3    0    0 -0.52679225597E+02 -0.45493144570E+02 -0.54040895494E+02  0.88120062405E+02  0.00000000000E+00 0. -1.
         11    1    3    3    0    0  0.24959230239E+02  0.16649199333E+02 -0.27759547706E+02  0.40874827234E+02  0.00000000000E+00 0.  1.
        -15    1    1    2    0    0  0.73938517901E+02  0.93319600701E+02  0.98951762635E+02  0.15482267716E+03  0.17770000000E+01 0.  1.
         15    1    1    2    0    0 -0.46218522543E+02 -0.64475655464E+02 -0.17151319435E+02  0.81182433204E+02  0.17770000000E+01 0. -1.
</event>
<event>
 7    1  0.1421899E-005  0.2584455E+03  0.7546771E-02  0.1020237E+00
        -11   -1    0    0    0    0  0.00000000000E+00  0.00000000000E+00  0.18250000000E+03  0.18250000000E+03  0.00000000000E+00 0.  1.
         11   -1    0    0    0    0 -0.00000000000E+00 -0.00000000000E+00 -0.18250000000E+03  0.18250000000E+03  0.00000000000E+00 0. -1.
         23    2    1    2    0    0 -0.15417963774E+02  0.22561653264E+02 -0.49035389987E+02  0.10655446116E+03  0.90568437750E+02 0.  0.
        -11    1    3    3    0    0 -0.34658297383E+02 -0.86284095299E+01  0.99817539225E+01  0.37084800659E+02  0.00000000000E+00 0.  1.
         11    1    3    3    0    0  0.19240333610E+02  0.31190062794E+02 -0.59017143910E+02  0.69469660499E+02  0.00000000000E+00 0. -1.
        -15    1    1    2    0    0  0.11188061287E+03  0.59823517623E+02  0.24432880959E+02  0.12921396286E+03  0.17770000000E+01 0. -1.
         15    1    1    2    0    0 -0.96462649094E+02 -0.82385170886E+02  0.24602509028E+02  0.12923157599E+03  0.17770000000E+01 0.  1.
</event>
<event>
 7    1  0.1421899E-005  0.1924113E+03  0.7546771E-02  0.1060828E+00
        -11   -1    0    0    0    0  0.00000000000E+00  0.00000000000E+00  0.18250000000E+03  0.18250000000E+03  0.00000000000E+00 0. -1.
         11   -1    0    0    0    0 -0.00000000000E+00 -0.00000000000E+00 -0.18250000000E+03  0.18250000000E+03  0.00000000000E+00 0.  1.
         23    2    1    2    0    0 -0.15885307792E+02 -0.10407943547E+03  0.13429621460E+03  0.19241132008E+03  0.88891905968E+02 0.  0.
        -11    1    3    3    0    0  0.18337231214E+01 -0.10554008517E+03  0.72367352439E+02  0.12798088067E+03  0.00000000000E+00 0. -1.
         11    1    3    3    0    0 -0.17719030913E+02  0.14606496952E+01  0.61928862163E+02  0.64430439412E+02  0.00000000000E+00 0.  1.
        -15    1    1    2    0    0 -0.61990963388E+01  0.24527515587E+02 -0.25089309920E+02  0.35674346771E+02  0.17770000000E+01 0. -1.
         15    1    1    2    0    0  0.22084404131E+02  0.79551919883E+02 -0.10920690468E+03  0.13691433315E+03  0.17770000000E+01 0.  1.
</event>
<event>
 7    1  0.1421899E-005  0.1829476E+03  0.7546771E-02  0.1068099E+00
        -11   -1    0    0    0    0  0.00000000000E+00  0.00000000000E+00  0.18250000000E+03  0.18250000000E+03  0.00000000000E+00 0.  1.
         11   -1    0    0    0    0 -0.00000000000E+00 -0.00000000000E+00 -0.18250000000E+03  0.18250000000E+03  0.00000000000E+00 0. -1.
         23    2    1    2    0    0 -0.22032140660E+02  0.11515095834E+02 -0.15425171493E+03  0.18205240599E+03  0.93442358236E+02 0.  0.
        -11    1    3    3    0    0 -0.20269112051E+02  0.12459242786E+02 -0.16723350002E+03  0.16891747441E+03  0.00000000000E+00 0. -1.
         11    1    3    3    0    0 -0.17630286088E+01 -0.94414695220E+00  0.12981785088E+02  0.13134931573E+02  0.00000000000E+00 0.  1.
        -15    1    1    2    0    0 -0.15909973533E+02  0.28800756456E+02  0.10049832497E+03  0.10576238405E+03  0.17770000000E+01 0.  1.
         15    1    1    2    0    0  0.37942114193E+02 -0.40315852290E+02  0.53753389961E+02  0.77185209961E+02  0.17770000000E+01 0. -1.
</event>
<event>
 7    1  0.1421899E-005  0.1939397E+03  0.7546771E-02  0.1059697E+00
        -11   -1    0    0    0    0  0.00000000000E+00  0.00000000000E+00  0.18250000000E+03  0.18250000000E+03  0.00000000000E+00 0.  1.
         11   -1    0    0    0    0 -0.00000000000E+00 -0.00000000000E+00 -0.18250000000E+03  0.18250000000E+03  0.00000000000E+00 0. -1.
         23    2    1    2    0    0  0.22799438954E+02 -0.18873447479E+01  0.16881455224E+03  0.19393966835E+03  0.92686921535E+02 0.  0.
        -11    1    3    3    0    0  0.30163021728E+01  0.26187831149E+02  0.53402408765E+01  0.26896444964E+02  0.00000000000E+00 0. -1.
         11    1    3    3    0    0  0.19783136781E+02 -0.28075175896E+02  0.16347431136E+03  0.16704322338E+03  0.00000000000E+00 0.  1.
        -15    1    1    2    0    0 -0.16707933991E+02 -0.21609161779E+01 -0.14722343662E+03  0.14819488060E+03  0.17770000000E+01 0. -1.
         15    1    1    2    0    0 -0.60915049626E+01  0.40482609258E+01 -0.21591115614E+02  0.22865451050E+02  0.17770000000E+01 0.  1.
</event>
<event>
 7    1  0.1421899E-005  0.1937530E+03  0.7546771E-02  0.1059834E+00
        -11   -1    0    0    0    0  0.00000000000E+00  0.00000000000E+00  0.18250000000E+03  0.18250000000E+03  0.00000000000E+00 0.  1.
         11   -1    0    0    0    0 -0.00000000000E+00 -0.00000000000E+00 -0.18250000000E+03  0.18250000000E+03  0.00000000000E+00 0. -1.
         23    2    1    2    0    0 -0.20611670450E+02  0.35662352147E+02 -0.16603194517E+03  0.19375299991E+03  0.90977875543E+02 0.  0.
        -11    1    3    3    0    0 -0.42501199459E+02 -0.14383229519E+02 -0.66583939196E+02  0.80291034404E+02  0.00000000000E+00 0.  1.
         11    1    3    3    0    0  0.21889529009E+02  0.50045581666E+02 -0.99448005973E+02  0.11346196551E+03  0.00000000000E+00 0. -1.
        -15    1    1    2    0    0  0.18934052363E+02 -0.29633730483E+02  0.13309849898E+03  0.13767724750E+03  0.17770000000E+01 0.  1.
         15    1    1    2    0    0  0.16776180866E+01 -0.60286216643E+01  0.32933446192E+02  0.33569752586E+02  0.17770000000E+01 0.  1.
</event>
<event>
 7    1  0.1421899E-005  0.2020539E+03  0.7546771E-02  0.1053875E+00
        -11   -1    0    0    0    0  0.00000000000E+00  0.00000000000E+00  0.18250000000E+03  0.18250000000E+03  0.00000000000E+00 0.  1.
         11   -1    0    0    0    0 -0.00000000000E+00 -0.00000000000E+00 -0.18250000000E+03  0.18250000000E+03  0.00000000000E+00 0. -1.
         23    2    1    2    0    0 -0.58995671077E+02  0.63343795045E+02 -0.10434540369E+03  0.16294614076E+03  0.90391127549E+02 0.  0.
        -11    1    3    3    0    0 -0.26472822307E+02  0.80478105088E+02 -0.53480923819E+02  0.10018854691E+03  0.00000000000E+00 0.  1.
         11    1    3    3    0    0 -0.32522848770E+02 -0.17134310043E+02 -0.50864479873E+02  0.62757593847E+02  0.00000000000E+00 0. -1.
        -15    1    1    2    0    0  0.84425509853E+02 -0.93952929198E+02  0.10162249390E+03  0.16212682879E+03  0.17770000000E+01 0.  1.
         15    1    1    2    0    0 -0.25429838776E+02  0.30609134152E+02  0.27229097878E+01  0.39927030448E+02  0.17770000000E+01 0. -1.
</event>
<event>
 7    1  0.1421899E-005  0.1937482E+03  0.7546771E-02  0.1059838E+00
        -11   -1    0    0    0    0  0.00000000000E+00  0.00000000000E+00  0.18250000000E+03  0.18250000000E+03  0.00000000000E+00 0.  1.
         11   -1    0    0    0    0 -0.00000000000E+00 -0.00000000000E+00 -0.18250000000E+03  0.18250000000E+03  0.00000000000E+00 0. -1.
         23    2    1    2    0    0  0.82937023052E+01 -0.11001470656E+02 -0.17042665699E+03  0.19374816968E+03  0.91122390149E+02 0.  0.
        -11    1    3    3    0    0  0.17186854760E+02  0.38342899013E+02 -0.77588975772E+02  0.88236132296E+02  0.00000000000E+00 0. -1.
         11    1    3    3    0    0 -0.88931524545E+01 -0.49344369669E+02 -0.92837681223E+02  0.10551203739E+03  0.00000000000E+00 0.  1.
        -15    1    1    2    0    0 -0.36026316333E+00  0.40407523544E+01  0.90949456843E+02  0.91057228698E+02  0.17770000000E+01 0.  1.
         15    1    1    2    0    0 -0.79334391419E+01  0.69607183014E+01  0.79477200152E+02  0.80194601619E+02  0.17770000000E+01 0. -1.
</event>
<event>
 7    1  0.1421899E-005  0.1927163E+03  0.7546771E-02  0.1060601E+00
        -11   -1    0    0    0    0  0.00000000000E+00  0.00000000000E+00  0.18250000000E+03  0.18250000000E+03  0.00000000000E+00 0. -1.
         11   -1    0    0    0    0 -0.00000000000E+00 -0.00000000000E+00 -0.18250000000E+03  0.18250000000E+03  0.00000000000E+00 0.  1.
         23    2    1    2    0    0 -0.22461526857E+02  0.10745748847E+03  0.12962387454E+03  0.19271630713E+03  0.91025239173E+02 0.  0.
        -11    1    3    3    0    0 -0.34036009303E+02  0.26593041848E+02  0.94292203372E+02  0.10371431637E+03  0.00000000000E+00 0.  1.
         11    1    3    3    0    0  0.11574482446E+02  0.80864446623E+02  0.35331671168E+02  0.89001990760E+02  0.00000000000E+00 0. -1.
        -15    1    1    2    0    0  0.27774715160E+00 -0.10166224751E+02 -0.28018039660E+02  0.29859630683E+02  0.17770000000E+01 0. -1.
         15    1    1    2    0    0  0.22183779705E+02 -0.97291263721E+02 -0.10160583488E+03  0.14242406218E+03  0.17770000000E+01 0.  1.
</event>
<event>
 7    1  0.1421899E-005  0.1937363E+03  0.7546771E-02  0.1059847E+00
        -11   -1    0    0    0    0  0.00000000000E+00  0.00000000000E+00  0.18250000000E+03  0.18250000000E+03  0.00000000000E+00 0.  1.
         11   -1    0    0    0    0 -0.00000000000E+00 -0.00000000000E+00 -0.18250000000E+03  0.18250000000E+03  0.00000000000E+00 0. -1.
         23    2    1    2    0    0  0.11401240730E+01  0.12901447439E+01 -0.17119638774E+03  0.19373627788E+03  0.90678430922E+02 0.  0.
        -11    1    3    3    0    0 -0.24986784929E+01  0.86921543007E+01  0.93460113906E+01  0.13005570711E+02  0.00000000000E+00 0.  1.
         11    1    3    3    0    0  0.36388025659E+01 -0.74020095569E+01 -0.18054239913E+03  0.18073070716E+03  0.00000000000E+00 0. -1.
        -15    1    1    2    0    0  0.64536918194E+00 -0.78269283518E-01  0.88130872322E+02  0.88151182707E+02  0.17770000000E+01 0. -1.
         15    1    1    2    0    0 -0.17854932550E+01 -0.12118754604E+01  0.83065515415E+02  0.83112539417E+02  0.17770000000E+01 0.  1.
</event>
<event>
 7    1  0.1421899E-005  0.1932626E+03  0.7546771E-02  0.1060197E+00
        -11   -1    0    0    0    0  0.00000000000E+00  0.00000000000E+00  0.18250000000E+03  0.18250000000E+03  0.00000000000E+00 0.  1.
         11   -1    0    0    0    0 -0.00000000000E+00 -0.00000000000E+00 -0.18250000000E+03  0.18250000000E+03  0.00000000000E+00 0. -1.
         23    2    1    2    0    0  0.71323719396E+02  0.94532314293E+02 -0.12315756483E+03  0.19326258202E+03  0.90328336864E+02 0.  0.
        -11    1    3    3    0    0  0.11722638307E+02 -0.17310508120E+02 -0.27169673252E+02  0.34282139444E+02  0.00000000000E+00 0.  1.
         11    1    3    3    0    0  0.59601081090E+02  0.11184282241E+03 -0.95987891575E+02  0.15898044258E+03  0.00000000000E+00 0. -1.
        -15    1    1    2    0    0 -0.66699577690E+02 -0.92873675770E+02  0.11616239815E+03  0.16300679062E+03  0.17770000000E+01 0.  1.
         15    1    1    2    0    0 -0.46241417061E+01 -0.16586385233E+01  0.69951666816E+01  0.87306273642E+01  0.17770000000E+01 0. -1.
</event>
<event>
 7    1  0.1421899E-005  0.1936173E+03  0.7546771E-02  0.1059934E+00
        -11   -1    0    0    0    0  0.00000000000E+00  0.00000000000E+00  0.18250000000E+03  0.18250000000E+03  0.00000000000E+00 0.  1.
         11   -1    0    0    0    0 -0.00000000000E+00 -0.00000000000E+00 -0.18250000000E+03  0.18250000000E+03  0.00000000000E+00 0. -1.
         23    2    1    2    0    0  0.22380827650E+01  0.87535812719E+00 -0.17104731110E+03  0.19361728352E+03  0.90690101853E+02 0.  0.
        -11    1    3    3    0    0 -0.10311253907E+02 -0.42574805343E+02 -0.65612227900E+02  0.78891700813E+02  0.00000000000E+00 0.  1.
         11    1    3    3    0    0  0.12549336672E+02  0.43450163470E+02 -0.10543508320E+03  0.11472558270E+03  0.00000000000E+00 0. -1.
        -15    1    1    2    0    0  0.24712924899E+01  0.28131217164E+01  0.48564345948E+02  0.48740890089E+02  0.17770000000E+01 0. -1.
         15    1    1    2    0    0 -0.47093752549E+01 -0.36884798436E+01  0.12248296516E+03  0.12264182639E+03  0.17770000000E+01 0.  1.
</event>
<event>
 7    1  0.1421899E-005  0.1938373E+03  0.7546771E-02  0.1059772E+00
        -11   -1    0    0    0    0  0.00000000000E+00  0.00000000000E+00  0.18250000000E+03  0.18250000000E+03  0.00000000000E+00 0. -1.
         11   -1    0    0    0    0 -0.00000000000E+00 -0.00000000000E+00 -0.18250000000E+03  0.18250000000E+03  0.00000000000E+00 0.  1.
         23    2    1    2    0    0  0.49519132762E+01 -0.50691615762E+01 -0.17054952550E+03  0.19383730534E+03  0.91845209165E+02 0.  0.
        -11    1    3    3    0    0  0.14476733390E+02  0.24858936865E+02 -0.15703107865E+03  0.15964429904E+03  0.00000000000E+00 0.  1.
         11    1    3    3    0    0 -0.95248201133E+01 -0.29928098441E+02 -0.13518446847E+02  0.34193006298E+02  0.00000000000E+00 0. -1.
        -15    1    1    2    0    0  0.37132093249E+01  0.80546615166E+00  0.33449572848E+02  0.33711546270E+02  0.17770000000E+01 0.  1.
         15    1    1    2    0    0 -0.86651226011E+01  0.42636954245E+01  0.13709995265E+03  0.13745114839E+03  0.17770000000E+01 0. -1.
</event>
<event>
 7    1  0.1421899E-005  0.1852619E+03  0.7546771E-02  0.1066277E+00
        -11   -1    0    0    0    0  0.00000000000E+00  0.00000000000E+00  0.18250000000E+03  0.18250000000E+03  0.00000000000E+00 0. -1.
         11   -1    0    0    0    0 -0.00000000000E+00 -0.00000000000E+00 -0.18250000000E+03  0.18250000000E+03  0.00000000000E+00 0.  1.
         23    2    1    2    0    0 -0.83989667219E+01 -0.27197457024E+02  0.15986048896E+03  0.18526187039E+03  0.89198320483E+02 0.  0.
        -11    1    3    3    0    0  0.37621631053E+02 -0.24101882154E+02  0.56151893933E+02  0.71758783704E+02  0.00000000000E+00 0.  1.
         11    1    3    3    0    0 -0.46020597775E+02 -0.30955748695E+01  0.10370859503E+03  0.11350308668E+03  0.00000000000E+00 0. -1.
        -15    1    1    2    0    0  0.19848438710E+01  0.41652206284E+02 -0.15834427029E+03  0.16375259252E+03  0.17770000000E+01 0.  1.
         15    1    1    2    0    0  0.64141228509E+01 -0.14454749260E+02 -0.15162186670E+01  0.15985537093E+02  0.17770000000E+01 0. -1.
</event>
<event>
 7    1  0.1421899E-005  0.1913111E+03  0.7546771E-02  0.1061650E+00
        -11   -1    0    0    0    0  0.00000000000E+00  0.00000000000E+00  0.18250000000E+03  0.18250000000E+03  0.00000000000E+00 0. -1.
         11   -1    0    0    0    0 -0.00000000000E+00 -0.00000000000E+00 -0.18250000000E+03  0.18250000000E+03  0.00000000000E+00 0.  1.
         23    2    1    2    0    0  0.13310991490E+02 -0.53486080365E+02  0.16009903461E+03  0.19131108742E+03  0.89052164485E+02 0.  0.
        -11    1    3    3    0    0  0.31542628083E+02  0.75151443150E+01  0.21833357599E+02  0.39091051207E+02  0.00000000000E+00 0.  1.
         11    1    3    3    0    0 -0.18231636593E+02 -0.61001224680E+02  0.13826567701E+03  0.15222003621E+03  0.00000000000E+00 0. -1.
        -15    1    1    2    0    0 -0.15424415604E+02  0.69446884114E+01 -0.21235267965E+02  0.27207271609E+02  0.17770000000E+01 0. -1.
         15    1    1    2    0    0  0.21134241137E+01  0.46541391953E+02 -0.13886376664E+03  0.14648164097E+03  0.17770000000E+01 0.  1.
</event>
<event>
 7    1  0.1421899E-005  0.1908202E+03  0.7546771E-02  0.1062018E+00
        -11   -1    0    0    0    0  0.00000000000E+00  0.00000000000E+00  0.18250000000E+03  0.18250000000E+03  0.00000000000E+00 0.  1.
         11   -1    0    0    0    0 -0.00000000000E+00 -0.00000000000E+00 -0.18250000000E+03  0.18250000000E+03  0.00000000000E+00 0. -1.
         23    2    1    2    0    0  0.77167386062E+02  0.12561873889E+03 -0.79591951324E+02  0.19082017586E+03  0.91337767465E+02 0.  0.
        -11    1    3    3    0    0  0.37125883747E+02  0.68944181983E+02  0.84045945121E+01  0.78754483569E+02  0.00000000000E+00 0.  1.
         11    1    3    3    0    0  0.40041502316E+02  0.56674556908E+02 -0.87996545837E+02  0.11206569229E+03  0.00000000000E+00 0. -1.
        -15    1    1    2    0    0  0.22881596940E-01  0.36476125046E+01  0.40094915057E+01  0.57043274525E+01  0.17770000000E+01 0. -1.
         15    1    1    2    0    0 -0.77190267659E+02 -0.12926635140E+03  0.75582459819E+02  0.16847549669E+03  0.17770000000E+01 0.  1.
</event>
<event>
 7    1  0.1421899E-005  0.1874541E+03  0.7546771E-02  0.1064578E+00
        -11   -1    0    0    0    0  0.00000000000E+00  0.00000000000E+00  0.18250000000E+03  0.18250000000E+03  0.00000000000E+00 0.  1.
         11   -1    0    0    0    0 -0.00000000000E+00 -0.00000000000E+00 -0.18250000000E+03  0.18250000000E+03  0.00000000000E+00 0. -1.
         23    2    1    2    0    0  0.12654564589E+03  0.64444314439E+02  0.81975957259E+02  0.18745412265E+03  0.90841182152E+02 0.  0.
        -11    1    3    3    0    0 -0.63525570793E+01  0.15926382107E+02  0.33972680758E+02  0.38054535424E+02  0.00000000000E+00 0.  1.
         11    1    3    3    0    0  0.13289820297E+03  0.48517932332E+02  0.48003276502E+02  0.14939958723E+03  0.00000000000E+00 0. -1.
        -15    1    1    2    0    0 -0.10765687018E+03 -0.78576528425E+02 -0.64170217668E+02  0.14793663198E+03  0.17770000000E+01 0. -1.
         15    1    1    2    0    0 -0.18888775710E+02  0.14132213986E+02 -0.17805739591E+02  0.29609245369E+02  0.17770000000E+01 0.  1.
</event>
<event>
 7    1  0.1421899E-005  0.1924583E+03  0.7546771E-02  0.1060793E+00
        -11   -1    0    0    0    0  0.00000000000E+00  0.00000000000E+00  0.18250000000E+03  0.18250000000E+03  0.00000000000E+00 0.  1.
         11   -1    0    0    0    0 -0.00000000000E+00 -0.00000000000E+00 -0.18250000000E+03  0.18250000000E+03  0.00000000000E+00 0. -1.
         23    2    1    2    0    0 -0.28653737165E+02 -0.35292031387E+02 -0.16300704488E+03  0.19245828913E+03  0.91664236427E+02 0.  0.
        -11    1    3    3    0    0  0.50588005326E+01 -0.18771560348E+02  0.51901266919E+01  0.20122135965E+02  0.00000000000E+00 0.  1.
         11    1    3    3    0    0 -0.33712537698E+02 -0.16520471040E+02 -0.16819717157E+03  0.17233615316E+03  0.00000000000E+00 0. -1.
        -15    1    1    2    0    0 -0.53331222549E+00 -0.23597587449E+01  0.32604725114E+00  0.30194236328E+01  0.17770000000E+01 0. -1.
         15    1    1    2    0    0  0.29187049391E+02  0.37651790132E+02  0.16268099763E+03  0.16952228724E+03  0.17770000000E+01 0.  1.
</event>
<event>
 7    1  0.1421899E-005  0.1948111E+03  0.7546771E-02  0.1059057E+00
        -11   -1    0    0    0    0  0.00000000000E+00  0.00000000000E+00  0.18250000000E+03  0.18250000000E+03  0.00000000000E+00 0.  1.
         11   -1    0    0    0    0 -0.00000000000E+00 -0.00000000000E+00 -0.18250000000E+03  0.18250000000E+03  0.00000000000E+00 0. -1.
         23    2    1    2    0    0 -0.12770949457E+03 -0.44520377649E+02 -0.48861781858E+02  0.17018894741E+03  0.91022113039E+02 0.  0.
        -11    1    3    3    0    0 -0.49261018445E+02 -0.67727747834E+01  0.25331454771E+02  0.55805026810E+02  0.00000000000E+00 0.  1.
         11    1    3    3    0    0 -0.78448476129E+02 -0.37747602866E+02 -0.74193236629E+02  0.11438392059E+03  0.00000000000E+00 0. -1.
        -15    1    1    2    0    0  0.73059879267E+02 -0.39333803205E+02 -0.94312552993E+00  0.82999646071E+02  0.17770000000E+01 0.  1.
         15    1    1    2    0    0  0.54649615307E+02  0.83854180854E+02  0.49804907388E+02  0.11181140652E+03  0.17770000000E+01 0. -1.
</event>
<event>
 7    1  0.1421899E-005  0.2461574E+03  0.7546771E-02  0.1026719E+00
        -11   -1    0    0    0    0  0.00000000000E+00  0.00000000000E+00  0.18250000000E+03  0.18250000000E+03  0.00000000000E+00 0.  1.
         11   -1    0    0    0    0 -0.00000000000E+00 -0.00000000000E+00 -0.18250000000E+03  0.18250000000E+03  0.00000000000E+00 0. -1.
         23    2    1    2    0    0 -0.35478257730E+01 -0.10813424506E+02 -0.75431394484E+02  0.11884258582E+03  0.91127096489E+02 0.  0.
        -11    1    3    3    0    0 -0.40205102578E+02 -0.86393106843E+01 -0.70737304644E+02  0.81822088892E+02  0.00000000000E+00 0.  1.
         11    1    3    3    0    0  0.36657276806E+02 -0.21741138215E+01 -0.46940898397E+01  0.37020496932E+02  0.00000000000E+00 0. -1.
        -15    1    1    2    0    0 -0.46790121376E+02  0.86601478903E+02 -0.33705821862E+02  0.10405946263E+03  0.17770000000E+01 0. -1.
         15    1    1    2    0    0  0.50337947149E+02 -0.75788054397E+02  0.10913721635E+03  0.14209795154E+03  0.17770000000E+01 0.  1.
</event>
<event>
 7    1  0.1421899E-005  0.1965449E+03  0.7546771E-02  0.1057794E+00
        -11   -1    0    0    0    0  0.00000000000E+00  0.00000000000E+00  0.18250000000E+03  0.18250000000E+03  0.00000000000E+00 0.  1.
         11   -1    0    0    0    0 -0.00000000000E+00 -0.00000000000E+00 -0.18250000000E+03  0.18250000000E+03  0.00000000000E+00 0.  1.
         23    2    1    2    0    0  0.17361967203E+02 -0.94581184446E+01 -0.16506692369E+03  0.19654485219E+03  0.10484224205E+03 0.  0.
        -11    1    3    3    0    0 -0.43279627324E+02 -0.10278089199E+02 -0.53663287160E+02  0.69703039013E+02  0.00000000000E+00 0.  1.
         11    1    3    3    0    0  0.60641594527E+02  0.81997075464E+00 -0.11140363653E+03  0.12684181318E+03  0.00000000000E+00 0.  1.
        -15    1    1    2    0    0 -0.17674294633E+02 -0.98206086761E+00  0.14152712283E+03  0.14264091054E+03  0.17770000000E+01 0.  1.
         15    1    1    2    0    0  0.31232742923E+00  0.10440179312E+02  0.23539800855E+02  0.25814237269E+02  0.17770000000E+01 0. -1.
</event>
<event>
 7    1  0.1421899E-005  0.1840297E+03  0.7546771E-02  0.1067244E+00
        -11   -1    0    0    0    0  0.00000000000E+00  0.00000000000E+00  0.18250000000E+03  0.18250000000E+03  0.00000000000E+00 0.  1.
         11   -1    0    0    0    0 -0.00000000000E+00 -0.00000000000E+00 -0.18250000000E+03  0.18250000000E+03  0.00000000000E+00 0. -1.
         23    2    1    2    0    0 -0.34596487136E+01  0.12030198518E+01 -0.15890107002E+03  0.18402966051E+03  0.92757476609E+02 0.  0.
        -11    1    3    3    0    0 -0.74133086597E+01  0.46017108624E+02 -0.95754745904E+02  0.10649649193E+03  0.00000000000E+00 0.  1.
         11    1    3    3    0    0  0.39536599461E+01 -0.44814088772E+02 -0.63146324116E+02  0.77533168572E+02  0.00000000000E+00 0. -1.
        -15    1    1    2    0    0 -0.36040737341E+02 -0.12643996884E+02  0.40867498427E+02  0.55965306771E+02  0.17770000000E+01 0. -1.
         15    1    1    2    0    0  0.39500386055E+02  0.11440977032E+02  0.11803357159E+03  0.12500503272E+03  0.17770000000E+01 0.  1.
</event>
<event>
 7    1  0.1421899E-005  0.2713277E+03  0.7546771E-02  0.1013847E+00
        -11   -1    0    0    0    0  0.00000000000E+00  0.00000000000E+00  0.18250000000E+03  0.18250000000E+03  0.00000000000E+00 0.  1.
         11   -1    0    0    0    0 -0.00000000000E+00 -0.00000000000E+00 -0.18250000000E+03  0.18250000000E+03  0.00000000000E+00 0. -1.
         23    2    1    2    0    0 -0.12515093025E+02 -0.24497424256E+01 -0.22511208735E+02  0.93672299050E+02  0.90028419398E+02 0.  0.
        -11    1    3    3    0    0 -0.17653795873E+02 -0.93950307862E+01 -0.55802782935E+02  0.59277935993E+02  0.00000000000E+00 0. -1.
         11    1    3    3    0    0  0.51387028488E+01  0.69452883606E+01  0.33291574200E+02  0.34394363057E+02  0.00000000000E+00 0.  1.
        -15    1    1    2    0    0  0.10048170783E+03 -0.95504104051E+02  0.14968300779E+02  0.13944466736E+03  0.17770000000E+01 0.  1.
         15    1    1    2    0    0 -0.87966614801E+02  0.97953846477E+02  0.75429079562E+01  0.13188303359E+03  0.17770000000E+01 0. -1.
</event>
<event>
 7    1  0.1421899E-005  0.1936814E+03  0.7546771E-02  0.1059887E+00
        -11   -1    0    0    0    0  0.00000000000E+00  0.00000000000E+00  0.18250000000E+03  0.18250000000E+03  0.00000000000E+00 0.  1.
         11   -1    0    0    0    0 -0.00000000000E+00 -0.00000000000E+00 -0.18250000000E+03  0.18250000000E+03  0.00000000000E+00 0. -1.
         23    2    1    2    0    0 -0.14738043543E+02 -0.10408398649E+03  0.13361654615E+03  0.19368139624E+03  0.92781548123E+02 0.  0.
        -11    1    3    3    0    0 -0.26632931409E+02 -0.11527804619E+03  0.13200657151E+03  0.17726837250E+03  0.00000000000E+00 0.  1.
         11    1    3    3    0    0  0.11894887866E+02  0.11194059694E+02  0.16099746396E+01  0.16413023735E+02  0.00000000000E+00 0. -1.
        -15    1    1    2    0    0  0.14247244095E+02  0.10061918175E+03 -0.12056879971E+03  0.15769336350E+03  0.17770000000E+01 0. -1.
         15    1    1    2    0    0  0.49079944837E+00  0.34648047474E+01 -0.13047746441E+02  0.13625240263E+02  0.17770000000E+01 0.  1.
</event>
<event>
 7    1  0.1421899E-005  0.1928959E+03  0.7546771E-02  0.1060468E+00
        -11   -1    0    0    0    0  0.00000000000E+00  0.00000000000E+00  0.18250000000E+03  0.18250000000E+03  0.00000000000E+00 0. -1.
         11   -1    0    0    0    0 -0.00000000000E+00 -0.00000000000E+00 -0.18250000000E+03  0.18250000000E+03  0.00000000000E+00 0. -1.
         23    2    1    2    0    0 -0.54658243435E+02  0.70089495128E+02 -0.14546239345E+03  0.19289585808E+03  0.90274266850E+02 0.  0.
        -11    1    3    3    0    0 -0.21976379462E+02  0.15654682882E+01  0.65456446507E+01  0.22983851051E+02  0.00000000000E+00 0. -1.
         11    1    3    3    0    0 -0.32681863972E+02  0.68524026840E+02 -0.15200803810E+03  0.16991200703E+03  0.00000000000E+00 0. -1.
        -15    1    1    2    0    0  0.47636884529E+02 -0.45626841902E+02  0.11246884356E+03  0.13039739250E+03  0.17770000000E+01 0.  1.
         15    1    1    2    0    0  0.70213589053E+01 -0.24462653226E+02  0.32993549886E+02  0.41706749416E+02  0.17770000000E+01 0. -1.
</event>
<event>
 7    1  0.1421899E-005  0.1937814E+03  0.7546771E-02  0.1059813E+00
        -11   -1    0    0    0    0  0.00000000000E+00  0.00000000000E+00  0.18250000000E+03  0.18250000000E+03  0.00000000000E+00 0. -1.
         11   -1    0    0    0    0 -0.00000000000E+00 -0.00000000000E+00 -0.18250000000E+03  0.18250000000E+03  0.00000000000E+00 0. -1.
         23    2    1    2    0    0 -0.54494875509E+01 -0.24668466422E+02  0.16915968700E+03  0.19378140783E+03  0.91093381577E+02 0.  0.
        -11    1    3    3    0    0 -0.20772217799E+02 -0.94047185106E+01  0.17058908868E+03  0.17210627804E+03  0.00000000000E+00 0. -1.
         11    1    3    3    0    0  0.15322730248E+02 -0.15263747911E+02 -0.14294016850E+01  0.21675129797E+02  0.00000000000E+00 0. -1.
        -15    1    1    2    0    0  0.22815690622E+01  0.18341663220E+02 -0.10324637977E+03  0.10490278753E+03  0.17770000000E+01 0. -1.
         15    1    1    2    0    0  0.31679184888E+01  0.63268032016E+01 -0.65913307229E+02  0.66315804641E+02  0.17770000000E+01 0. -1.
</event>
<event>
 7    1  0.1421899E-005  0.3650000E+03  0.7546771E-02  0.9765871E-01
        -11   -1    0    0    0    0  0.00000000000E+00  0.00000000000E+00  0.18250000000E+03  0.18250000000E+03  0.00000000000E+00 0.  1.
         11   -1    0    0    0    0 -0.00000000000E+00 -0.00000000000E+00 -0.18250000000E+03  0.18250000000E+03  0.00000000000E+00 0. -1.
         23    2    1    2    0    0 -0.11383522654E+02  0.40346939898E+02 -0.90861460954E+02  0.13757333301E+03  0.94409516055E+02 0.  0.
        -11    1    3    3    0    0 -0.26487100633E+02  0.10106331894E+02 -0.98853939695E+02  0.10283873705E+03  0.00000000000E+00 0. -1.
         11    1    3    3    0    0  0.15103577979E+02  0.30240608004E+02  0.79924787417E+01  0.34734595962E+02  0.00000000000E+00 0.  1.
        -15    1    1    2    0    0 -0.78492370049E+02 -0.19992564051E+02  0.10663112047E+03  0.13391828985E+03  0.17770000000E+01 0.  1.
         15    1    1    2    0    0  0.89875892703E+02 -0.20354375847E+02 -0.15769659521E+02  0.93508377142E+02  0.17770000000E+01 0. -1.
</event>
<event>
 7    1  0.1421899E-005  0.2337488E+03  0.7546771E-02  0.1033694E+00
        -11   -1    0    0    0    0  0.00000000000E+00  0.00000000000E+00  0.18250000000E+03  0.18250000000E+03  0.00000000000E+00 0.  1.
         11   -1    0    0    0    0 -0.00000000000E+00 -0.00000000000E+00 -0.18250000000E+03  0.18250000000E+03  0.00000000000E+00 0. -1.
         23    2    1    2    0    0 -0.17961631944E+02  0.87976223993E+02  0.30322082175E+02  0.13125117600E+03  0.90802017183E+02 0.  0.
        -11    1    3    3    0    0  0.18097976012E+02  0.89002653584E+02  0.14984705245E+02  0.92051890106E+02  0.00000000000E+00 0. -1.
         11    1    3    3    0    0 -0.36059607957E+02 -0.10264295916E+01  0.15337376930E+02  0.39199285896E+02  0.00000000000E+00 0.  1.
        -15    1    1    2    0    0  0.97427618971E+02 -0.75218802264E+01 -0.62689594227E+02  0.11611142310E+03  0.17770000000E+01 0. -1.
         15    1    1    2    0    0 -0.79465987027E+02 -0.80454343766E+02  0.32367512052E+02  0.11763740090E+03  0.17770000000E+01 0.  1.
</event>
<event>
 7    1  0.1421899E-005  0.1860185E+03  0.7546771E-02  0.1065688E+00
        -11   -1    0    0    0    0  0.00000000000E+00  0.00000000000E+00  0.18250000000E+03  0.18250000000E+03  0.00000000000E+00 0. -1.
         11   -1    0    0    0    0 -0.00000000000E+00 -0.00000000000E+00 -0.18250000000E+03  0.18250000000E+03  0.00000000000E+00 0.  1.
         23    2    1    2    0    0 -0.63535977475E+02  0.76934887304E+02  0.12724865853E+03  0.18601851232E+03  0.91950358939E+02 0.  0.
        -11    1    3    3    0    0 -0.74757509776E+02  0.23704239187E+02  0.55957802270E+02  0.96342367930E+02  0.00000000000E+00 0. -1.
         11    1    3    3    0    0  0.11221532301E+02  0.53230648117E+02  0.71290856256E+02  0.89676144385E+02  0.00000000000E+00 0.  1.
        -15    1    1    2    0    0  0.62994776580E+02 -0.84298425491E+02 -0.82874925361E+02  0.13396259702E+03  0.17770000000E+01 0.  1.
         15    1    1    2    0    0  0.54120089526E+00  0.73635381873E+01 -0.44373733165E+02  0.45018890669E+02  0.17770000000E+01 0. -1.
</event>
<event>
 7    1  0.1421899E-005  0.2095709E+03  0.7546771E-02  0.1048741E+00
        -11   -1    0    0    0    0  0.00000000000E+00  0.00000000000E+00  0.18250000000E+03  0.18250000000E+03  0.00000000000E+00 0.  1.
         11   -1    0    0    0    0 -0.00000000000E+00 -0.00000000000E+00 -0.18250000000E+03  0.18250000000E+03  0.00000000000E+00 0. -1.
         23    2    1    2    0    0  0.12487083735E+03 -0.86112242393E+01  0.18403622178E+02  0.15542913974E+03  0.90291998360E+02 0.  0.
        -11    1    3    3    0    0  0.53295821536E+02 -0.12446410127E+02  0.52691944749E+02  0.75972355233E+02  0.00000000000E+00 0.  1.
         11    1    3    3    0    0  0.71575015817E+02  0.38351858878E+01 -0.34288322571E+02  0.79456784510E+02  0.00000000000E+00 0. -1.
        -15    1    1    2    0    0 -0.16277255591E+03  0.18682416385E+02 -0.33978598294E+02  0.16733690720E+03  0.17770000000E+01 0.  1.
         15    1    1    2    0    0  0.37901718559E+02 -0.10071192146E+02  0.15574976116E+02  0.42233953058E+02  0.17770000000E+01 0. -1.
</event>
<event>
 7    1  0.1421899E-005  0.1943916E+03  0.7546771E-02  0.1059364E+00
        -11   -1    0    0    0    0  0.00000000000E+00  0.00000000000E+00  0.18250000000E+03  0.18250000000E+03  0.00000000000E+00 0.  1.
         11   -1    0    0    0    0 -0.00000000000E+00 -0.00000000000E+00 -0.18250000000E+03  0.18250000000E+03  0.00000000000E+00 0. -1.
         23    2    1    2    0    0 -0.11111232028E+03  0.39891108439E+02  0.12060263392E+03  0.19439163853E+03  0.96466914383E+02 0.  0.
        -11    1    3    3    0    0 -0.19871970404E+02  0.31389102126E+02  0.90678728397E+02  0.97993891257E+02  0.00000000000E+00 0. -1.
         11    1    3    3    0    0 -0.91240349880E+02  0.85020063133E+01  0.29923905522E+02  0.96397747272E+02  0.00000000000E+00 0.  1.
        -15    1    1    2    0    0  0.45280438748E+01 -0.36483872111E+01 -0.15233430435E+02  0.16402104816E+02  0.17770000000E+01 0.  1.
         15    1    1    2    0    0  0.10658427641E+03 -0.36242721228E+02 -0.10536920348E+03  0.15420625665E+03  0.17770000000E+01 0. -1.
</event>
<event>
 7    1  0.1421899E-005  0.3650000E+03  0.7546771E-02  0.9765871E-01
        -11   -1    0    0    0    0  0.00000000000E+00  0.00000000000E+00  0.18250000000E+03  0.18250000000E+03  0.00000000000E+00 0.  1.
         11   -1    0    0    0    0 -0.00000000000E+00 -0.00000000000E+00 -0.18250000000E+03  0.18250000000E+03  0.00000000000E+00 0. -1.
         23    2    1    2    0    0 -0.46123144121E+02 -0.41287234125E+01 -0.11212171141E+03  0.15168912708E+03  0.91070974098E+02 0.  0.
        -11    1    3    3    0    0 -0.42055339275E+02 -0.10151465493E+02 -0.12752153011E+03  0.13466047844E+03  0.00000000000E+00 0. -1.
         11    1    3    3    0    0 -0.40678048457E+01  0.60227420803E+01  0.15399818697E+02  0.17028648635E+02  0.00000000000E+00 0.  1.
        -15    1    1    2    0    0  0.57770998338E+02 -0.14170550454E+02  0.15455794456E+03  0.16561886579E+03  0.17770000000E+01 0.  1.
         15    1    1    2    0    0 -0.11647854217E+02  0.18299273866E+02 -0.42436233149E+02  0.47692007137E+02  0.17770000000E+01 0. -1.
</event>
<event>
 7    1  0.1421899E-005  0.1908385E+03  0.7546771E-02  0.1062005E+00
        -11   -1    0    0    0    0  0.00000000000E+00  0.00000000000E+00  0.18250000000E+03  0.18250000000E+03  0.00000000000E+00 0.  1.
         11   -1    0    0    0    0 -0.00000000000E+00 -0.00000000000E+00 -0.18250000000E+03  0.18250000000E+03  0.00000000000E+00 0. -1.
         23    2    1    2    0    0  0.34632006070E+01  0.17073168799E+02 -0.16697572780E+03  0.19083850086E+03  0.90746641172E+02 0.  0.
        -11    1    3    3    0    0 -0.17857226844E+02  0.41895750330E+02 -0.14353493755E+03  0.15058689433E+03  0.00000000000E+00 0. -1.
         11    1    3    3    0    0  0.21320427451E+02 -0.24822581531E+02 -0.23440790250E+02  0.40251606528E+02  0.00000000000E+00 0.  1.
        -15    1    1    2    0    0  0.10931950790E+02  0.79083152616E+01  0.10387845434E+03  0.10476612050E+03  0.17770000000E+01 0.  1.
         15    1    1    2    0    0 -0.14395151397E+02 -0.24981484061E+02  0.63097273463E+02  0.69395378644E+02  0.17770000000E+01 0. -1.
</event>
<event>
 7    1  0.1421899E-005  0.1849246E+03  0.7546771E-02  0.1066541E+00
        -11   -1    0    0    0    0  0.00000000000E+00  0.00000000000E+00  0.18250000000E+03  0.18250000000E+03  0.00000000000E+00 0.  1.
         11   -1    0    0    0    0 -0.00000000000E+00 -0.00000000000E+00 -0.18250000000E+03  0.18250000000E+03  0.00000000000E+00 0. -1.
         23    2    1    2    0    0 -0.54845723443E+01  0.54369673251E+02 -0.15062980404E+03  0.18492461433E+03  0.92312692619E+02 0.  0.
        -11    1    3    3    0    0  0.34470903392E+02  0.37894618845E+00 -0.25402472450E+02  0.42821401045E+02  0.00000000000E+00 0.  1.
         11    1    3    3    0    0 -0.39955475737E+02  0.53990727063E+02 -0.12522733159E+03  0.14210321329E+03  0.00000000000E+00 0. -1.
        -15    1    1    2    0    0  0.26425597403E+02  0.11985924334E+02  0.45201385835E+02  0.53742884093E+02  0.17770000000E+01 0. -1.
         15    1    1    2    0    0 -0.20941025059E+02 -0.66355597585E+02  0.10542841820E+03  0.12633250158E+03  0.17770000000E+01 0.  1.
</event>
<event>
 7    1  0.1421899E-005  0.1899612E+03  0.7546771E-02  0.1062666E+00
        -11   -1    0    0    0    0  0.00000000000E+00  0.00000000000E+00  0.18250000000E+03  0.18250000000E+03  0.00000000000E+00 0.  1.
         11   -1    0    0    0    0 -0.00000000000E+00 -0.00000000000E+00 -0.18250000000E+03  0.18250000000E+03  0.00000000000E+00 0. -1.
         23    2    1    2    0    0  0.71026613884E+02 -0.42972161855E+02  0.14370234974E+03  0.18996121996E+03  0.92431126749E+02 0.  0.
        -11    1    3    3    0    0  0.64400213011E+02  0.78645116864E+00  0.12747758608E+03  0.14282346059E+03  0.00000000000E+00 0.  1.
         11    1    3    3    0    0  0.66264008734E+01 -0.43758613024E+02  0.16224763656E+02  0.47137759365E+02  0.00000000000E+00 0. -1.
        -15    1    1    2    0    0 -0.75918339192E+01 -0.12965556083E+02 -0.17869924240E+02  0.23414386777E+02  0.17770000000E+01 0.  1.
         15    1    1    2    0    0 -0.63434779965E+02  0.55937717938E+02 -0.12583242550E+03  0.15162439327E+03  0.17770000000E+01 0. -1.
</event>
<event>
 7    1  0.1421899E-005  0.1951399E+03  0.7546771E-02  0.1058816E+00
        -11   -1    0    0    0    0  0.00000000000E+00  0.00000000000E+00  0.18250000000E+03  0.18250000000E+03  0.00000000000E+00 0.  1.
         11   -1    0    0    0    0 -0.00000000000E+00 -0.00000000000E+00 -0.18250000000E+03  0.18250000000E+03  0.00000000000E+00 0. -1.
         23    2    1    2    0    0  0.35692438099E+01  0.71457046538E+02  0.12554243604E+03  0.16986007606E+03  0.89289938909E+02 0.  0.
        -11    1    3    3    0    0 -0.35012188388E+02  0.61577193014E+01  0.23096528101E+02  0.42393636941E+02  0.00000000000E+00 0. -1.
         11    1    3    3    0    0  0.38581432198E+02  0.65299327237E+02  0.10244590794E+03  0.12746643912E+03  0.00000000000E+00 0.  1.
        -15    1    1    2    0    0 -0.63129177600E+02 -0.10629726061E+02 -0.58935690548E+02  0.87033657225E+02  0.17770000000E+01 0.  1.
         15    1    1    2    0    0  0.59559933790E+02 -0.60827320477E+02 -0.66606745492E+02  0.10810626672E+03  0.17770000000E+01 0. -1.
</event>
<event>
 7    1  0.1421899E-005  0.1923188E+03  0.7546771E-02  0.1060897E+00
        -11   -1    0    0    0    0  0.00000000000E+00  0.00000000000E+00  0.18250000000E+03  0.18250000000E+03  0.00000000000E+00 0.  1.
         11   -1    0    0    0    0 -0.00000000000E+00 -0.00000000000E+00 -0.18250000000E+03  0.18250000000E+03  0.00000000000E+00 0. -1.
         23    2    1    2    0    0  0.79507831118E+01 -0.30529929088E+01 -0.16828728437E+03  0.19231882304E+03  0.92700506460E+02 0.  0.
        -11    1    3    3    0    0 -0.12908449048E+01  0.33011407912E+02 -0.18272169339E+02  0.37753033061E+02  0.00000000000E+00 0.  1.
         11    1    3    3    0    0  0.92416280166E+01 -0.36064400821E+02 -0.15001511503E+03  0.15456578998E+03  0.00000000000E+00 0. -1.
        -15    1    1    2    0    0  0.39304277683E+00  0.86840015937E+01  0.15775448956E+03  0.15800380714E+03  0.17770000000E+01 0. -1.
         15    1    1    2    0    0 -0.83438258887E+01 -0.56310086849E+01  0.10532794813E+02  0.14677369820E+02  0.17770000000E+01 0.  1.
</event>
<event>
 7    1  0.1421899E-005  0.1949411E+03  0.7546771E-02  0.1058962E+00
        -11   -1    0    0    0    0  0.00000000000E+00  0.00000000000E+00  0.18250000000E+03  0.18250000000E+03  0.00000000000E+00 0.  1.
         11   -1    0    0    0    0 -0.00000000000E+00 -0.00000000000E+00 -0.18250000000E+03  0.18250000000E+03  0.00000000000E+00 0. -1.
         23    2    1    2    0    0 -0.65905215185E+02  0.61435550082E+02 -0.11180029909E+03  0.17005885026E+03  0.91120148552E+02 0.  0.
        -11    1    3    3    0    0 -0.15519670426E+02 -0.20950868442E+02 -0.58903220735E+01  0.26730038397E+02  0.00000000000E+00 0.  1.
         11    1    3    3    0    0 -0.50385544759E+02  0.82386418524E+02 -0.10590997701E+03  0.14332881186E+03  0.00000000000E+00 0. -1.
        -15    1    1    2    0    0  0.90241724965E+02 -0.87548186197E+01  0.10126802810E+03  0.13593596661E+03  0.17770000000E+01 0.  1.
         15    1    1    2    0    0 -0.24336509780E+02 -0.52680731462E+02  0.10532270991E+02  0.59005183136E+02  0.17770000000E+01 0. -1.
</event>
<event>
 7    1  0.1421899E-005  0.1968948E+03  0.7546771E-02  0.1057541E+00
        -11   -1    0    0    0    0  0.00000000000E+00  0.00000000000E+00  0.18250000000E+03  0.18250000000E+03  0.00000000000E+00 0. -1.
         11   -1    0    0    0    0 -0.00000000000E+00 -0.00000000000E+00 -0.18250000000E+03  0.18250000000E+03  0.00000000000E+00 0.  1.
         23    2    1    2    0    0 -0.60073602781E+02  0.96356078411E+02  0.88033813033E+02  0.16810523775E+03  0.87270196081E+02 0.  0.
        -11    1    3    3    0    0 -0.75859301524E+02  0.71284366157E+02  0.39692619721E+02  0.11140735409E+03  0.00000000000E+00 0.  1.
         11    1    3    3    0    0  0.15785698743E+02  0.25071712254E+02  0.48341193312E+02  0.56697883655E+02  0.00000000000E+00 0. -1.
        -15    1    1    2    0    0  0.34342173819E+02 -0.12954743638E+03 -0.68991342438E+02  0.15074775698E+03  0.17770000000E+01 0. -1.
         15    1    1    2    0    0  0.25731428962E+02  0.33191357965E+02 -0.19042470596E+02  0.46147005270E+02  0.17770000000E+01 0.  1.
</event>
<event>
 7    1  0.1421899E-005  0.1929865E+03  0.7546771E-02  0.1060401E+00
        -11   -1    0    0    0    0  0.00000000000E+00  0.00000000000E+00  0.18250000000E+03  0.18250000000E+03  0.00000000000E+00 0.  1.
         11   -1    0    0    0    0 -0.00000000000E+00 -0.00000000000E+00 -0.18250000000E+03  0.18250000000E+03  0.00000000000E+00 0. -1.
         23    2    1    2    0    0 -0.12346259161E+03 -0.14401072288E+02  0.11656549528E+03  0.19298648624E+03  0.90586239403E+02 0.  0.
        -11    1    3    3    0    0  0.75172741519E+01 -0.98456574743E+01 -0.58044319801E+01  0.13679832323E+02  0.00000000000E+00 0. -1.
         11    1    3    3    0    0 -0.13097986576E+03 -0.45554148134E+01  0.12236992726E+03  0.17930665391E+03  0.00000000000E+00 0.  1.
        -15    1    1    2    0    0  0.69138810935E+01  0.43506292330E+01 -0.14585431209E+02  0.16811372908E+02  0.17770000000E+01 0.  1.
         15    1    1    2    0    0  0.11654871052E+03  0.10050443055E+02 -0.10198006407E+03  0.15520214086E+03  0.17770000000E+01 0. -1.
</event>
<event>
 7    1  0.1421899E-005  0.1937445E+03  0.7546771E-02  0.1059841E+00
        -11   -1    0    0    0    0  0.00000000000E+00  0.00000000000E+00  0.18250000000E+03  0.18250000000E+03  0.00000000000E+00 0.  1.
         11   -1    0    0    0    0 -0.00000000000E+00 -0.00000000000E+00 -0.18250000000E+03  0.18250000000E+03  0.00000000000E+00 0. -1.
         23    2    1    2    0    0 -0.99432648605E+02 -0.46848793005E+02  0.94592305956E+02  0.17125545039E+03  0.91099198281E+02 0.  0.
        -11    1    3    3    0    0 -0.19411277875E+01 -0.20738156390E+02  0.61672519098E+02  0.65094844031E+02  0.00000000000E+00 0. -1.
         11    1    3    3    0    0 -0.97491520817E+02 -0.26110636616E+02  0.32919786859E+02  0.10616060636E+03  0.00000000000E+00 0.  1.
        -15    1    1    2    0    0  0.60211248976E+02 -0.23339642092E+01  0.19575006377E+02  0.63381231416E+02  0.17770000000E+01 0.  1.
         15    1    1    2    0    0  0.39221399628E+02  0.49182757214E+02 -0.11416731233E+03  0.13036331819E+03  0.17770000000E+01 0. -1.
</event>
<event>
 7    1  0.1421899E-005  0.1937622E+03  0.7546771E-02  0.1059828E+00
        -11   -1    0    0    0    0  0.00000000000E+00  0.00000000000E+00  0.18250000000E+03  0.18250000000E+03  0.00000000000E+00 0. -1.
         11   -1    0    0    0    0 -0.00000000000E+00 -0.00000000000E+00 -0.18250000000E+03  0.18250000000E+03  0.00000000000E+00 0. -1.
         23    2    1    2    0    0 -0.29717564148E+01  0.10007414477E+01 -0.17019868804E+03  0.19376221465E+03  0.92554684347E+02 0.  0.
        -11    1    3    3    0    0  0.22495538643E+01 -0.24208781250E+02 -0.28898108109E+01  0.24484211009E+02  0.00000000000E+00 0. -1.
         11    1    3    3    0    0 -0.52213102791E+01  0.25209522698E+02 -0.16730887723E+03  0.16927800364E+03  0.00000000000E+00 0. -1.
        -15    1    1    2    0    0  0.54781077575E+01 -0.86048098967E+01  0.10929873970E+03  0.10978808973E+03  0.17770000000E+01 0. -1.
         15    1    1    2    0    0 -0.25063513427E+01  0.76040684490E+01  0.60899948349E+02  0.61449695621E+02  0.17770000000E+01 0.  1.
</event>
<event>
 7    1  0.1421899E-005  0.1919229E+03  0.7546771E-02  0.1061192E+00
        -11   -1    0    0    0    0  0.00000000000E+00  0.00000000000E+00  0.18250000000E+03  0.18250000000E+03  0.00000000000E+00 0. -1.
         11   -1    0    0    0    0 -0.00000000000E+00 -0.00000000000E+00 -0.18250000000E+03  0.18250000000E+03  0.00000000000E+00 0.  1.
         23    2    1    2    0    0  0.64758528688E+02  0.55057911881E+02 -0.14745283986E+03  0.19192288774E+03  0.88696190192E+02 0.  0.
        -11    1    3    3    0    0  0.28696863926E+02  0.53180470942E+02 -0.14336691739E+03  0.15558195747E+03  0.00000000000E+00 0.  1.
         11    1    3    3    0    0  0.36061664762E+02  0.18774409391E+01 -0.40859224707E+01  0.36340930262E+02  0.00000000000E+00 0. -1.
        -15    1    1    2    0    0 -0.14627067875E+02  0.13098793535E+01  0.30452046547E+02  0.33854863262E+02  0.17770000000E+01 0.  1.
         15    1    1    2    0    0 -0.50131460813E+02 -0.56367791234E+02  0.11700079332E+03  0.13922224900E+03  0.17770000000E+01 0. -1.
</event>
<event>
 7    1  0.1421899E-005  0.1939838E+03  0.7546771E-02  0.1059664E+00
        -11   -1    0    0    0    0  0.00000000000E+00  0.00000000000E+00  0.18250000000E+03  0.18250000000E+03  0.00000000000E+00 0.  1.
         11   -1    0    0    0    0 -0.00000000000E+00 -0.00000000000E+00 -0.18250000000E+03  0.18250000000E+03  0.00000000000E+00 0. -1.
         23    2    1    2    0    0  0.75746371754E+01  0.20917905629E+02  0.16858659151E+03  0.19398377756E+03  0.93345236709E+02 0.  0.
        -11    1    3    3    0    0  0.39843722560E+02 -0.17490961917E+02  0.99559930118E+02  0.10865374205E+03  0.00000000000E+00 0.  1.
         11    1    3    3    0    0 -0.32269085385E+02  0.38408867546E+02  0.69026661394E+02  0.85330035515E+02  0.00000000000E+00 0. -1.
        -15    1    1    2    0    0  0.55556553355E+01 -0.85246064807E+01 -0.50672013237E+02  0.51714068457E+02  0.17770000000E+01 0.  1.
         15    1    1    2    0    0 -0.13130292511E+02 -0.12393299148E+02 -0.11791457827E+03  0.11930215398E+03  0.17770000000E+01 0. -1.
</event>
<event>
 7    1  0.1421899E-005  0.1921350E+03  0.7546771E-02  0.1061034E+00
        -11   -1    0    0    0    0  0.00000000000E+00  0.00000000000E+00  0.18250000000E+03  0.18250000000E+03  0.00000000000E+00 0. -1.
         11   -1    0    0    0    0 -0.00000000000E+00 -0.00000000000E+00 -0.18250000000E+03  0.18250000000E+03  0.00000000000E+00 0.  1.
         23    2    1    2    0    0 -0.85681723594E+01 -0.98024475581E+01 -0.16952253201E+03  0.19213497409E+03  0.89489987442E+02 0.  0.
        -11    1    3    3    0    0 -0.39684691304E+02 -0.23800644957E+02 -0.51299801809E+02  0.69087011007E+02  0.00000000000E+00 0.  1.
         11    1    3    3    0    0  0.31116518944E+02  0.13998197399E+02 -0.11822273020E+03  0.12304796308E+03  0.00000000000E+00 0. -1.
        -15    1    1    2    0    0 -0.98145187087E+01  0.24672544012E+01  0.25726240776E+02  0.27702153621E+02  0.17770000000E+01 0.  1.
         15    1    1    2    0    0  0.18382691068E+02  0.73351931570E+01  0.14379629124E+03  0.14516287229E+03  0.17770000000E+01 0. -1.
</event>
<event>
 7    1  0.1421899E-005  0.1942266E+03  0.7546771E-02  0.1059486E+00
        -11   -1    0    0    0    0  0.00000000000E+00  0.00000000000E+00  0.18250000000E+03  0.18250000000E+03  0.00000000000E+00 0.  1.
         11   -1    0    0    0    0 -0.00000000000E+00 -0.00000000000E+00 -0.18250000000E+03  0.18250000000E+03  0.00000000000E+00 0. -1.
         23    2    1    2    0    0  0.15473084011E+02 -0.24557924959E+02 -0.16632695250E+03  0.19422655844E+03  0.96004129433E+02 0.  0.
        -11    1    3    3    0    0  0.22134550159E+02  0.72091356204E+01  0.14640983617E+01  0.23324955116E+02  0.00000000000E+00 0.  1.
         11    1    3    3    0    0 -0.66614661484E+01 -0.31767060579E+02 -0.16779105086E+03  0.17090160333E+03  0.00000000000E+00 0. -1.
        -15    1    1    2    0    0  0.53022508805E+01 -0.10481156717E+01  0.23538097260E+02  0.24215948515E+02  0.17770000000E+01 0. -1.
         15    1    1    2    0    0 -0.20775334891E+02  0.25606040631E+02  0.14278885524E+03  0.14655749304E+03  0.17770000000E+01 0.  1.
</event>
<event>
 7    1  0.1421899E-005  0.1936272E+03  0.7546771E-02  0.1059927E+00
        -11   -1    0    0    0    0  0.00000000000E+00  0.00000000000E+00  0.18250000000E+03  0.18250000000E+03  0.00000000000E+00 0. -1.
         11   -1    0    0    0    0 -0.00000000000E+00 -0.00000000000E+00 -0.18250000000E+03  0.18250000000E+03  0.00000000000E+00 0.  1.
         23    2    1    2    0    0  0.15137174706E+02  0.63593402800E+01 -0.17019816917E+03  0.19362723963E+03  0.90854366264E+02 0.  0.
        -11    1    3    3    0    0  0.24918446190E+02 -0.13073090634E+02 -0.16954273619E+03  0.17186207858E+03  0.00000000000E+00 0.  1.
         11    1    3    3    0    0 -0.97812714839E+01  0.19432430914E+02 -0.65543298496E+00  0.21765161049E+02  0.00000000000E+00 0. -1.
        -15    1    1    2    0    0 -0.14950834310E+01 -0.14645479126E+00  0.53401160166E+01  0.58250572136E+01  0.17770000000E+01 0.  1.
         15    1    1    2    0    0 -0.13642091275E+02 -0.62128854888E+01  0.16485805316E+03  0.16554770316E+03  0.17770000000E+01 0. -1.
</event>
<event>
 7    1  0.1421899E-005  0.1971350E+03  0.7546771E-02  0.1057368E+00
        -11   -1    0    0    0    0  0.00000000000E+00  0.00000000000E+00  0.18250000000E+03  0.18250000000E+03  0.00000000000E+00 0. -1.
         11   -1    0    0    0    0 -0.00000000000E+00 -0.00000000000E+00 -0.18250000000E+03  0.18250000000E+03  0.00000000000E+00 0.  1.
         23    2    1    2    0    0 -0.10254375609E+02  0.24253494741E+00 -0.16729412477E+03  0.19713503474E+03  0.10377710102E+03 0.  0.
        -11    1    3    3    0    0  0.34249724599E+02 -0.23104846463E+02 -0.30360445087E+02  0.51270207636E+02  0.00000000000E+00 0. -1.
         11    1    3    3    0    0 -0.44504100208E+02  0.23347381410E+02 -0.13693367969E+03  0.14586482710E+03  0.00000000000E+00 0.  1.
        -15    1    1    2    0    0  0.96252183542E+00 -0.25225088610E+01  0.72655571685E+02  0.72727431723E+02  0.17770000000E+01 0. -1.
         15    1    1    2    0    0  0.92918537738E+01  0.22799739136E+01  0.94638553089E+02  0.95137533536E+02  0.17770000000E+01 0. -1.
</event>
<event>
 7    1  0.1421899E-005  0.1884270E+03  0.7546771E-02  0.1063832E+00
        -11   -1    0    0    0    0  0.00000000000E+00  0.00000000000E+00  0.18250000000E+03  0.18250000000E+03  0.00000000000E+00 0.  1.
         11   -1    0    0    0    0 -0.00000000000E+00 -0.00000000000E+00 -0.18250000000E+03  0.18250000000E+03  0.00000000000E+00 0. -1.
         23    2    1    2    0    0  0.72939813952E+01 -0.10330543281E+03  0.11201205073E+03  0.17657296378E+03  0.88916238208E+02 0.  0.
        -11    1    3    3    0    0 -0.20511860783E+02  0.26136853279E+01  0.10965572825E+01  0.20706767533E+02  0.00000000000E+00 0. -1.
         11    1    3    3    0    0  0.27805842178E+02 -0.10591911814E+03  0.11091549345E+03  0.15586619625E+03  0.00000000000E+00 0.  1.
        -15    1    1    2    0    0  0.47829949816E+02  0.35740803004E+02 -0.68730863460E+02  0.91061508991E+02  0.17770000000E+01 0.  1.
         15    1    1    2    0    0 -0.55123931211E+02  0.67564629803E+02 -0.43281187268E+02  0.97365527231E+02  0.17770000000E+01 0. -1.
</event>
<event>
 7    1  0.1421899E-005  0.1904130E+03  0.7546771E-02  0.1062325E+00
        -11   -1    0    0    0    0  0.00000000000E+00  0.00000000000E+00  0.18250000000E+03  0.18250000000E+03  0.00000000000E+00 0.  1.
         11   -1    0    0    0    0 -0.00000000000E+00 -0.00000000000E+00 -0.18250000000E+03  0.18250000000E+03  0.00000000000E+00 0. -1.
         23    2    1    2    0    0 -0.14591740543E+02 -0.70634826936E+02 -0.14881635320E+03  0.19041301658E+03  0.94385445050E+02 0.  0.
        -11    1    3    3    0    0 -0.15706559898E+02 -0.62789924267E+01  0.95791492810E+01  0.19439183899E+02  0.00000000000E+00 0.  1.
         11    1    3    3    0    0  0.11148193545E+01 -0.64355834510E+02 -0.15839550248E+03  0.17097383269E+03  0.00000000000E+00 0. -1.
        -15    1    1    2    0    0  0.16923429460E+02  0.43471595377E+02  0.37248475176E+02  0.59722597911E+02  0.17770000000E+01 0. -1.
         15    1    1    2    0    0 -0.23316889167E+01  0.27163231559E+02  0.11156787802E+03  0.11486438550E+03  0.17770000000E+01 0.  1.
</event>
<event>
 7    1  0.1421899E-005  0.1934334E+03  0.7546771E-02  0.1060070E+00
        -11   -1    0    0    0    0  0.00000000000E+00  0.00000000000E+00  0.18250000000E+03  0.18250000000E+03  0.00000000000E+00 0.  1.
         11   -1    0    0    0    0 -0.00000000000E+00 -0.00000000000E+00 -0.18250000000E+03  0.18250000000E+03  0.00000000000E+00 0. -1.
         23    2    1    2    0    0 -0.11438312970E+02  0.20534822729E+02 -0.16868493733E+03  0.19343337657E+03  0.91702503465E+02 0.  0.
        -11    1    3    3    0    0  0.20011229933E+02 -0.29187226428E+02 -0.54474288283E+02  0.64959922983E+02  0.00000000000E+00 0. -1.
         11    1    3    3    0    0 -0.31449542904E+02  0.49722049157E+02 -0.11421064905E+03  0.12847345359E+03  0.00000000000E+00 0.  1.
        -15    1    1    2    0    0  0.15951086319E+02 -0.11881588910E+02  0.85957667045E+02  0.88246742505E+02  0.17770000000E+01 0.  1.
         15    1    1    2    0    0 -0.45127733490E+01 -0.86532338192E+01  0.82727270287E+02  0.83319880922E+02  0.17770000000E+01 0. -1.
</event>
<event>
 7    1  0.1421899E-005  0.1940027E+03  0.7546771E-02  0.1059650E+00
        -11   -1    0    0    0    0  0.00000000000E+00  0.00000000000E+00  0.18250000000E+03  0.18250000000E+03  0.00000000000E+00 0. -1.
         11   -1    0    0    0    0 -0.00000000000E+00 -0.00000000000E+00 -0.18250000000E+03  0.18250000000E+03  0.00000000000E+00 0.  1.
         23    2    1    2    0    0 -0.18976488281E+02 -0.46120272236E+01  0.16939851352E+03  0.19400270906E+03  0.92519278191E+02 0.  0.
        -11    1    3    3    0    0  0.19827483775E+02 -0.36752836939E+02  0.55492838006E+02  0.69450379451E+02  0.00000000000E+00 0.  1.
         11    1    3    3    0    0 -0.38803972057E+02  0.32140809716E+02  0.11390567552E+03  0.12455232961E+03  0.00000000000E+00 0. -1.
        -15    1    1    2    0    0  0.16779429599E+02  0.78248651370E+01 -0.14888876764E+03  0.15004599505E+03  0.17770000000E+01 0.  1.
         15    1    1    2    0    0  0.21970586817E+01 -0.32128379134E+01 -0.20509745877E+02  0.20951295885E+02  0.17770000000E+01 0. -1.
</event>
<event>
 7    1  0.1421899E-005  0.1896992E+03  0.7546771E-02  0.1062864E+00
        -11   -1    0    0    0    0  0.00000000000E+00  0.00000000000E+00  0.18250000000E+03  0.18250000000E+03  0.00000000000E+00 0.  1.
         11   -1    0    0    0    0 -0.00000000000E+00 -0.00000000000E+00 -0.18250000000E+03  0.18250000000E+03  0.00000000000E+00 0. -1.
         23    2    1    2    0    0 -0.11915358116E+03 -0.10668856127E+03  0.47773282157E+02  0.18969919971E+03  0.90130321598E+02 0.  0.
        -11    1    3    3    0    0 -0.47430449494E+02 -0.12559317304E+01  0.39808577192E+02  0.61935028229E+02  0.00000000000E+00 0. -1.
         11    1    3    3    0    0 -0.71723131671E+02 -0.10543262954E+03  0.79647049651E+01  0.12776417148E+03  0.00000000000E+00 0.  1.
        -15    1    1    2    0    0  0.15956837136E+02  0.18010369882E+02 -0.29333357843E+02  0.37981544018E+02  0.17770000000E+01 0.  1.
         15    1    1    2    0    0  0.10319674403E+03  0.88678191389E+02 -0.18439924314E+02  0.13731925627E+03  0.17770000000E+01 0. -1.
</event>
<event>
 7    1  0.1421899E-005  0.1935656E+03  0.7546771E-02  0.1059973E+00
        -11   -1    0    0    0    0  0.00000000000E+00  0.00000000000E+00  0.18250000000E+03  0.18250000000E+03  0.00000000000E+00 0. -1.
         11   -1    0    0    0    0 -0.00000000000E+00 -0.00000000000E+00 -0.18250000000E+03  0.18250000000E+03  0.00000000000E+00 0.  1.
         23    2    1    2    0    0  0.64733166958E+01 -0.14411991992E+02  0.17038963047E+03  0.19356564284E+03  0.90473325207E+02 0.  0.
        -11    1    3    3    0    0  0.15177319714E+02 -0.12485997380E+02  0.17964410748E+03  0.18071595535E+03  0.00000000000E+00 0. -1.
         11    1    3    3    0    0 -0.87040030180E+01 -0.19259946123E+01 -0.92544770141E+01  0.12849687490E+02  0.00000000000E+00 0.  1.
        -15    1    1    2    0    0  0.16399377353E+01  0.37108681957E+00 -0.30146485011E+02  0.30245584615E+02  0.17770000000E+01 0. -1.
         15    1    1    2    0    0 -0.81132544311E+01  0.14040905173E+02 -0.14024314546E+03  0.14118877254E+03  0.17770000000E+01 0.  1.
</event>
<event>
 7    1  0.1421899E-005  0.1937548E+03  0.7546771E-02  0.1059833E+00
        -11   -1    0    0    0    0  0.00000000000E+00  0.00000000000E+00  0.18250000000E+03  0.18250000000E+03  0.00000000000E+00 0.  1.
         11   -1    0    0    0    0 -0.00000000000E+00 -0.00000000000E+00 -0.18250000000E+03  0.18250000000E+03  0.00000000000E+00 0. -1.
         23    2    1    2    0    0 -0.57698792429E+01 -0.19394298528E+01 -0.17103877684E+03  0.19375480919E+03  0.90827363744E+02 0.  0.
        -11    1    3    3    0    0 -0.59615749541E+01  0.11092983634E+02 -0.17836100474E+03  0.17880504096E+03  0.00000000000E+00 0. -1.
         11    1    3    3    0    0  0.19169571121E+00 -0.13032413487E+02  0.73222278983E+01  0.14949768223E+02  0.00000000000E+00 0.  1.
        -15    1    1    2    0    0  0.80366170924E+00 -0.98713953041E+00  0.63253045312E+02  0.63290803336E+02  0.17770000000E+01 0. -1.
         15    1    1    2    0    0  0.49662175336E+01  0.29265693832E+01  0.10778573153E+03  0.10795438748E+03  0.17770000000E+01 0.  1.
</event>
<event>
 7    1  0.1421899E-005  0.1930985E+03  0.7546771E-02  0.1060318E+00
        -11   -1    0    0    0    0  0.00000000000E+00  0.00000000000E+00  0.18250000000E+03  0.18250000000E+03  0.00000000000E+00 0. -1.
         11   -1    0    0    0    0 -0.00000000000E+00 -0.00000000000E+00 -0.18250000000E+03  0.18250000000E+03  0.00000000000E+00 0.  1.
         23    2    1    2    0    0 -0.74032790490E+02 -0.59066054264E+02 -0.14071738989E+03  0.19309847709E+03  0.92282095784E+02 0.  0.
        -11    1    3    3    0    0 -0.86461976061E+01 -0.83165541347E+01 -0.10025001202E+03  0.10096527480E+03  0.00000000000E+00 0. -1.
         11    1    3    3    0    0 -0.65386592884E+02 -0.50749500129E+02 -0.40467377874E+02  0.92133202291E+02  0.00000000000E+00 0.  1.
        -15    1    1    2    0    0  0.23599171866E+02  0.28938027437E+02  0.74564768024E+02  0.83410986711E+02  0.17770000000E+01 0. -1.
         15    1    1    2    0    0  0.50433618623E+02  0.30128026827E+02  0.66152621868E+02  0.88490536200E+02  0.17770000000E+01 0.  1.
</event>
<event>
 7    1  0.1421899E-005  0.1896085E+03  0.7546771E-02  0.1062933E+00
        -11   -1    0    0    0    0  0.00000000000E+00  0.00000000000E+00  0.18250000000E+03  0.18250000000E+03  0.00000000000E+00 0. -1.
         11   -1    0    0    0    0 -0.00000000000E+00 -0.00000000000E+00 -0.18250000000E+03  0.18250000000E+03  0.00000000000E+00 0.  1.
         23    2    1    2    0    0 -0.27461779413E+02  0.14472123567E+01  0.16474701626E+03  0.18960851405E+03  0.89741659681E+02 0.  0.
        -11    1    3    3    0    0  0.26130904527E+02 -0.15501936324E+02  0.26295104475E+02  0.40181671450E+02  0.00000000000E+00 0.  1.
         11    1    3    3    0    0 -0.53592683940E+02  0.16949148681E+02  0.13845191178E+03  0.14942684260E+03  0.00000000000E+00 0. -1.
        -15    1    1    2    0    0  0.18273156671E+02  0.22102438729E+02 -0.48141695700E+02  0.56064308132E+02  0.17770000000E+01 0.  1.
         15    1    1    2    0    0  0.91886227412E+01 -0.23549651085E+02 -0.11660532056E+03  0.11932717782E+03  0.17770000000E+01 0. -1.
</event>
<event>
 7    1  0.1421899E-005  0.1868654E+03  0.7546771E-02  0.1065032E+00
        -11   -1    0    0    0    0  0.00000000000E+00  0.00000000000E+00  0.18250000000E+03  0.18250000000E+03  0.00000000000E+00 0.  1.
         11   -1    0    0    0    0 -0.00000000000E+00 -0.00000000000E+00 -0.18250000000E+03  0.18250000000E+03  0.00000000000E+00 0. -1.
         23    2    1    2    0    0 -0.10689568995E+01  0.97684765745E+01  0.16263938424E+03  0.18686541186E+03  0.91490693738E+02 0.  0.
        -11    1    3    3    0    0 -0.22858578078E+02  0.27599923156E+01  0.40894424175E+00  0.23028230169E+02  0.00000000000E+00 0. -1.
         11    1    3    3    0    0  0.21789621179E+02  0.70084842588E+01  0.16223044000E+03  0.16383718169E+03  0.00000000000E+00 0.  1.
        -15    1    1    2    0    0 -0.23839925939E+02 -0.20128064391E+02 -0.13820175008E+03  0.14169108122E+03  0.17770000000E+01 0. -1.
         15    1    1    2    0    0  0.24908882838E+02  0.10359587816E+02 -0.24437634161E+02  0.36443506916E+02  0.17770000000E+01 0.  1.
</event>
<event>
 7    1  0.1421899E-005  0.1934562E+03  0.7546771E-02  0.1060053E+00
        -11   -1    0    0    0    0  0.00000000000E+00  0.00000000000E+00  0.18250000000E+03  0.18250000000E+03  0.00000000000E+00 0.  1.
         11   -1    0    0    0    0 -0.00000000000E+00 -0.00000000000E+00 -0.18250000000E+03  0.18250000000E+03  0.00000000000E+00 0. -1.
         23    2    1    2    0    0 -0.34186457506E+01  0.78555201389E+01 -0.17042046927E+03  0.19345620265E+03  0.91152452863E+02 0.  0.
        -11    1    3    3    0    0  0.32284534460E+02  0.33981612619E+02 -0.78176399669E+02  0.91151470787E+02  0.00000000000E+00 0. -1.
         11    1    3    3    0    0 -0.35703180210E+02 -0.26126092480E+02 -0.92244069598E+02  0.10230473186E+03  0.00000000000E+00 0.  1.
        -15    1    1    2    0    0  0.73444224380E+01  0.22590559766E+01  0.49477601797E+02  0.50102242300E+02  0.17770000000E+01 0. -1.
         15    1    1    2    0    0 -0.39257766874E+01 -0.10114576115E+02  0.12094286747E+03  0.12144155505E+03  0.17770000000E+01 0.  1.
</event>
<event>
 7    1  0.1421899E-005  0.1929161E+03  0.7546771E-02  0.1060453E+00
        -11   -1    0    0    0    0  0.00000000000E+00  0.00000000000E+00  0.18250000000E+03  0.18250000000E+03  0.00000000000E+00 0. -1.
         11   -1    0    0    0    0 -0.00000000000E+00 -0.00000000000E+00 -0.18250000000E+03  0.18250000000E+03  0.00000000000E+00 0. -1.
         23    2    1    2    0    0 -0.44420968526E+02  0.21142173318E+02  0.16346059546E+03  0.19291611342E+03  0.89872390707E+02 0.  0.
        -11    1    3    3    0    0 -0.53656848433E+02  0.10976935304E+02  0.16933988001E+03  0.17797624969E+03  0.00000000000E+00 0. -1.
         11    1    3    3    0    0  0.92358799065E+01  0.10165238014E+02 -0.58792845468E+01  0.14939863731E+02  0.00000000000E+00 0. -1.
        -15    1    1    2    0    0  0.34977006667E+02 -0.23287789006E+02 -0.11086397409E+03  0.11857356616E+03  0.17770000000E+01 0. -1.
         15    1    1    2    0    0  0.94439618587E+01  0.21456156886E+01 -0.52596621370E+02  0.53510320414E+02  0.17770000000E+01 0.  1.
</event>
<event>
 7    1  0.1421899E-005  0.1936041E+03  0.7546771E-02  0.1059944E+00
        -11   -1    0    0    0    0  0.00000000000E+00  0.00000000000E+00  0.18250000000E+03  0.18250000000E+03  0.00000000000E+00 0.  1.
         11   -1    0    0    0    0 -0.00000000000E+00 -0.00000000000E+00 -0.18250000000E+03  0.18250000000E+03  0.00000000000E+00 0. -1.
         23    2    1    2    0    0 -0.19748405778E+02  0.21789136652E+01 -0.16989045597E+03  0.19360408883E+03  0.90691945554E+02 0.  0.
        -11    1    3    3    0    0  0.12081262788E+02 -0.78272513177E+01  0.52432713100E+01  0.15320400379E+02  0.00000000000E+00 0.  1.
         11    1    3    3    0    0 -0.31829668565E+02  0.10006164983E+02 -0.17513372728E+03  0.17828368845E+03  0.00000000000E+00 0. -1.
        -15    1    1    2    0    0  0.16792747952E+02  0.22605452143E+01  0.12970354905E+03  0.13081771598E+03  0.17770000000E+01 0. -1.
         15    1    1    2    0    0  0.29556578259E+01 -0.44394588795E+01  0.40186906912E+02  0.40578195186E+02  0.17770000000E+01 0.  1.
</event>
<event>
 7    1  0.1421899E-005  0.1931731E+03  0.7546771E-02  0.1060263E+00
        -11   -1    0    0    0    0  0.00000000000E+00  0.00000000000E+00  0.18250000000E+03  0.18250000000E+03  0.00000000000E+00 0.  1.
         11   -1    0    0    0    0 -0.00000000000E+00 -0.00000000000E+00 -0.18250000000E+03  0.18250000000E+03  0.00000000000E+00 0. -1.
         23    2    1    2    0    0 -0.16747323880E+02 -0.42763527455E+02 -0.16468724475E+03  0.19317306494E+03  0.89915250630E+02 0.  0.
        -11    1    3    3    0    0 -0.28649423938E+02 -0.37624441987E+02 -0.17193529134E+03  0.17832030881E+03  0.00000000000E+00 0. -1.
         11    1    3    3    0    0  0.11902100058E+02 -0.51390854681E+01  0.72480465860E+01  0.14852756127E+02  0.00000000000E+00 0.  1.
        -15    1    1    2    0    0  0.17940075317E+02  0.40595653709E+02  0.13814589575E+03  0.14511133534E+03  0.17770000000E+01 0.  1.
         15    1    1    2    0    0 -0.11927514372E+01  0.21678737460E+01  0.26541349003E+02  0.26715599721E+02  0.17770000000E+01 0.  1.
</event>
<event>
 7    1  0.1421899E-005  0.1843202E+03  0.7546771E-02  0.1067015E+00
        -11   -1    0    0    0    0  0.00000000000E+00  0.00000000000E+00  0.18250000000E+03  0.18250000000E+03  0.00000000000E+00 0.  1.
         11   -1    0    0    0    0 -0.00000000000E+00 -0.00000000000E+00 -0.18250000000E+03  0.18250000000E+03  0.00000000000E+00 0. -1.
         23    2    1    2    0    0 -0.43167689666E+02  0.25154217339E+02 -0.14985630984E+03  0.18067979970E+03  0.87704574223E+02 0.  0.
        -11    1    3    3    0    0 -0.54011743311E+02  0.47228906206E+02 -0.13216231244E+03  0.15038189660E+03  0.00000000000E+00 0. -1.
         11    1    3    3    0    0  0.10844053645E+02 -0.22074688867E+02 -0.17693997401E+02  0.30297903097E+02  0.00000000000E+00 0.  1.
        -15    1    1    2    0    0  0.61825375116E+02  0.14427069956E+02  0.90037308373E+02  0.11018344696E+03  0.17770000000E+01 0.  1.
         15    1    1    2    0    0 -0.18657685451E+02 -0.39581287295E+02  0.59819001468E+02  0.74136753341E+02  0.17770000000E+01 0. -1.
</event>
<event>
 7    1  0.1421899E-005  0.1850693E+03  0.7546771E-02  0.1066428E+00
        -11   -1    0    0    0    0  0.00000000000E+00  0.00000000000E+00  0.18250000000E+03  0.18250000000E+03  0.00000000000E+00 0.  1.
         11   -1    0    0    0    0 -0.00000000000E+00 -0.00000000000E+00 -0.18250000000E+03  0.18250000000E+03  0.00000000000E+00 0.  1.
         23    2    1    2    0    0  0.40921483067E+01 -0.15153284519E+03 -0.36758183416E+02  0.17993065426E+03  0.89693519528E+02 0.  0.
        -11    1    3    3    0    0 -0.33763060269E+02 -0.10850104582E+03 -0.44623682896E+02  0.12208068749E+03  0.00000000000E+00 0.  1.
         11    1    3    3    0    0  0.37855208575E+02 -0.43031799372E+02  0.78654994803E+01  0.57849966773E+02  0.00000000000E+00 0.  1.
        -15    1    1    2    0    0 -0.99827115962E+01 -0.12441490230E+02 -0.27660832902E+01  0.16286625056E+02  0.17770000000E+01 0. -1.
         15    1    1    2    0    0  0.58905632894E+01  0.16397433542E+03  0.39524266706E+02  0.16878272068E+03  0.17770000000E+01 0.  1.
</event>
<event>
 7    1  0.1421899E-005  0.1886332E+03  0.7546771E-02  0.1063675E+00
        -11   -1    0    0    0    0  0.00000000000E+00  0.00000000000E+00  0.18250000000E+03  0.18250000000E+03  0.00000000000E+00 0. -1.
         11   -1    0    0    0    0 -0.00000000000E+00 -0.00000000000E+00 -0.18250000000E+03  0.18250000000E+03  0.00000000000E+00 0.  1.
         23    2    1    2    0    0 -0.58057745639E+02  0.65057667072E+02 -0.13965031373E+03  0.18863318311E+03  0.92070982248E+02 0.  0.
        -11    1    3    3    0    0 -0.20186216926E+02  0.82575062615E+02 -0.90599139520E+02  0.12423497254E+03  0.00000000000E+00 0.  1.
         11    1    3    3    0    0 -0.37871528713E+02 -0.17517395543E+02 -0.49051174206E+02  0.64398210571E+02  0.00000000000E+00 0. -1.
        -15    1    1    2    0    0  0.15963441375E+02 -0.38978655140E+02  0.11189348906E+03  0.11957206045E+03  0.17770000000E+01 0.  1.
         15    1    1    2    0    0  0.42094304264E+02 -0.26079011932E+02  0.27756824668E+02  0.56794756444E+02  0.17770000000E+01 0. -1.
</event>
<event>
 7    1  0.1421899E-005  0.1949357E+03  0.7546771E-02  0.1058965E+00
        -11   -1    0    0    0    0  0.00000000000E+00  0.00000000000E+00  0.18250000000E+03  0.18250000000E+03  0.00000000000E+00 0.  1.
         11   -1    0    0    0    0 -0.00000000000E+00 -0.00000000000E+00 -0.18250000000E+03  0.18250000000E+03  0.00000000000E+00 0. -1.
         23    2    1    2    0    0 -0.41203581918E+02  0.55614559919E+02  0.12561600172E+03  0.17006430646E+03  0.91388040821E+02 0.  0.
        -11    1    3    3    0    0 -0.59683542108E+02  0.43019149995E+01  0.71459080819E+02  0.93204248308E+02  0.00000000000E+00 0. -1.
         11    1    3    3    0    0  0.18479960190E+02  0.51312644920E+02  0.54156920906E+02  0.76860058153E+02  0.00000000000E+00 0.  1.
        -15    1    1    2    0    0 -0.20618289749E+02  0.30497899288E+02 -0.59494589352E+02  0.69985710144E+02  0.17770000000E+01 0.  1.
         15    1    1    2    0    0  0.61821871667E+02 -0.86112459208E+02 -0.66121412372E+02  0.12494998339E+03  0.17770000000E+01 0. -1.
</event>
<event>
 7    1  0.1421899E-005  0.1906526E+03  0.7546771E-02  0.1062144E+00
        -11   -1    0    0    0    0  0.00000000000E+00  0.00000000000E+00  0.18250000000E+03  0.18250000000E+03  0.00000000000E+00 0.  1.
         11   -1    0    0    0    0 -0.00000000000E+00 -0.00000000000E+00 -0.18250000000E+03  0.18250000000E+03  0.00000000000E+00 0. -1.
         23    2    1    2    0    0  0.62742690737E+02  0.96260053518E+01 -0.14883013933E+03  0.19065261701E+03  0.10083999593E+03 0.  0.
        -11    1    3    3    0    0  0.36533642645E+01  0.18615800788E+02  0.96443415258E+01  0.21281645446E+02  0.00000000000E+00 0.  1.
         11    1    3    3    0    0  0.59089326473E+02 -0.89897954360E+01 -0.15847448085E+03  0.16937097156E+03  0.00000000000E+00 0. -1.
        -15    1    1    2    0    0 -0.33349867946E+02 -0.23671538817E+02  0.13083379398E+03  0.13708827381E+03  0.17770000000E+01 0.  1.
         15    1    1    2    0    0 -0.29392822791E+02  0.14045533465E+02  0.17996345353E+02  0.37259109182E+02  0.17770000000E+01 0. -1.
</event>
<event>
 7    1  0.1421899E-005  0.1939433E+03  0.7546771E-02  0.1059694E+00
        -11   -1    0    0    0    0  0.00000000000E+00  0.00000000000E+00  0.18250000000E+03  0.18250000000E+03  0.00000000000E+00 0. -1.
         11   -1    0    0    0    0 -0.00000000000E+00 -0.00000000000E+00 -0.18250000000E+03  0.18250000000E+03  0.00000000000E+00 0. -1.
         23    2    1    2    0    0  0.34627601463E+01 -0.45986981715E+01 -0.17084595486E+03  0.19394329522E+03  0.91610712997E+02 0.  0.
        -11    1    3    3    0    0 -0.14636055301E+02  0.51405602504E+01  0.54584992574E+01  0.16444898559E+02  0.00000000000E+00 0. -1.
         11    1    3    3    0    0  0.18098815448E+02 -0.97392584219E+01 -0.17630445412E+03  0.17749839666E+03  0.00000000000E+00 0. -1.
        -15    1    1    2    0    0 -0.18176962127E+00  0.99840112077E+00  0.10013258832E+03  0.10015349629E+03  0.17770000000E+01 0. -1.
         15    1    1    2    0    0 -0.32809905250E+01  0.36002970508E+01  0.70713366541E+02  0.70903208491E+02  0.17770000000E+01 0. -1.
</event>
<event>
 7    1  0.1421899E-005  0.1838297E+03  0.7546771E-02  0.1067401E+00
        -11   -1    0    0    0    0  0.00000000000E+00  0.00000000000E+00  0.18250000000E+03  0.18250000000E+03  0.00000000000E+00 0.  1.
         11   -1    0    0    0    0 -0.00000000000E+00 -0.00000000000E+00 -0.18250000000E+03  0.18250000000E+03  0.00000000000E+00 0. -1.
         23    2    1    2    0    0 -0.13498131951E+02 -0.13733823234E+02 -0.15994792760E+03  0.18382972713E+03  0.88539322164E+02 0.  0.
        -11    1    3    3    0    0  0.68847157659E+01  0.80627884829E+01 -0.15276872085E+03  0.15313618102E+03  0.00000000000E+00 0. -1.
         11    1    3    3    0    0 -0.20382847717E+02 -0.21796611717E+02 -0.71792067510E+01  0.30693546113E+02  0.00000000000E+00 0.  1.
        -15    1    1    2    0    0 -0.81336014592E+01 -0.19913206128E+02  0.64363010183E+01  0.22522765167E+02  0.17770000000E+01 0. -1.
         15    1    1    2    0    0  0.21631733410E+02  0.33647029362E+02  0.15351162658E+03  0.15864750770E+03  0.17770000000E+01 0.  1.
</event>
<event>
 7    1  0.1421899E-005  0.1909455E+03  0.7546771E-02  0.1061924E+00
        -11   -1    0    0    0    0  0.00000000000E+00  0.00000000000E+00  0.18250000000E+03  0.18250000000E+03  0.00000000000E+00 0.  1.
         11   -1    0    0    0    0 -0.00000000000E+00 -0.00000000000E+00 -0.18250000000E+03  0.18250000000E+03  0.00000000000E+00 0. -1.
         23    2    1    2    0    0  0.34445490602E+01  0.13667080161E+02 -0.16775329202E+03  0.19094550103E+03  0.90113058877E+02 0.  0.
        -11    1    3    3    0    0  0.39004308756E+02  0.69156386828E+01 -0.33438045621E+02  0.51838837322E+02  0.00000000000E+00 0.  1.
         11    1    3    3    0    0 -0.35559759696E+02  0.67514414780E+01 -0.13431524640E+03  0.13910666371E+03  0.00000000000E+00 0. -1.
        -15    1    1    2    0    0  0.10399618406E+02 -0.16913092114E+02  0.14962136556E+03  0.15094341823E+03  0.17770000000E+01 0.  1.
         15    1    1    2    0    0 -0.13844167466E+02  0.32460119534E+01  0.18131926469E+02  0.23111080739E+02  0.17770000000E+01 0. -1.
</event>
<event>
 7    1  0.1421899E-005  0.1955711E+03  0.7546771E-02  0.1058501E+00
        -11   -1    0    0    0    0  0.00000000000E+00  0.00000000000E+00  0.18250000000E+03  0.18250000000E+03  0.00000000000E+00 0.  1.
         11   -1    0    0    0    0 -0.00000000000E+00 -0.00000000000E+00 -0.18250000000E+03  0.18250000000E+03  0.00000000000E+00 0. -1.
         23    2    1    2    0    0 -0.79199379892E+00 -0.33146206057E+01 -0.16923817347E+03  0.19557111872E+03  0.97953505058E+02 0.  0.
        -11    1    3    3    0    0  0.24713031496E+02  0.10577530515E+02 -0.16384006655E+03  0.16603067633E+03  0.00000000000E+00 0. -1.
         11    1    3    3    0    0 -0.25505025294E+02 -0.13892151121E+02 -0.53981069259E+01  0.29540442387E+02  0.00000000000E+00 0.  1.
        -15    1    1    2    0    0 -0.26267992095E+01  0.10629324483E+01  0.53297864410E+02  0.53402715091E+02  0.17770000000E+01 0. -1.
         15    1    1    2    0    0  0.34187930085E+01  0.22516881574E+01  0.11594030906E+03  0.11602616619E+03  0.17770000000E+01 0.  1.
</event>
<event>
 7    1  0.1421899E-005  0.1916107E+03  0.7546771E-02  0.1061425E+00
        -11   -1    0    0    0    0  0.00000000000E+00  0.00000000000E+00  0.18250000000E+03  0.18250000000E+03  0.00000000000E+00 0.  1.
         11   -1    0    0    0    0 -0.00000000000E+00 -0.00000000000E+00 -0.18250000000E+03  0.18250000000E+03  0.00000000000E+00 0. -1.
         23    2    1    2    0    0  0.29137338196E+01 -0.20125928258E+02 -0.16716545051E+03  0.19161069859E+03  0.91415694141E+02 0.  0.
        -11    1    3    3    0    0 -0.71853929966E+01  0.16851474174E+01 -0.16741112927E+03  0.16757373242E+03  0.00000000000E+00 0. -1.
         11    1    3    3    0    0  0.10099126816E+02 -0.21811075676E+02  0.24567875401E+00  0.24036966170E+02  0.00000000000E+00 0.  1.
        -15    1    1    2    0    0  0.15407236389E+02  0.22640744962E+02  0.10200314071E+03  0.10563041565E+03  0.17770000000E+01 0. -1.
         15    1    1    2    0    0 -0.18320970208E+02 -0.25148167039E+01  0.65162309800E+02  0.67758885763E+02  0.17770000000E+01 0.  1.
</event>
<event>
 7    1  0.1421899E-005  0.1859217E+03  0.7546771E-02  0.1065763E+00
        -11   -1    0    0    0    0  0.00000000000E+00  0.00000000000E+00  0.18250000000E+03  0.18250000000E+03  0.00000000000E+00 0.  1.
         11   -1    0    0    0    0 -0.00000000000E+00 -0.00000000000E+00 -0.18250000000E+03  0.18250000000E+03  0.00000000000E+00 0. -1.
         23    2    1    2    0    0 -0.96952535583E+01  0.14992921225E+01 -0.16169675455E+03  0.18592168036E+03  0.91240259631E+02 0.  0.
        -11    1    3    3    0    0  0.11261526511E+01  0.44363826732E+02 -0.10524685259E+03  0.11422047681E+03  0.00000000000E+00 0.  1.
         11    1    3    3    0    0 -0.10821406209E+02 -0.42864534609E+02 -0.56449901962E+02  0.71701203554E+02  0.00000000000E+00 0. -1.
        -15    1    1    2    0    0  0.72059785335E+01 -0.37568579124E+02  0.10546868170E+03  0.11220572540E+03  0.17770000000E+01 0. -1.
         15    1    1    2    0    0  0.24892750248E+01  0.36069287002E+02  0.56228072850E+02  0.66872594239E+02  0.17770000000E+01 0.  1.
</event>
<event>
 7    1  0.1421899E-005  0.1934005E+03  0.7546771E-02  0.1060095E+00
        -11   -1    0    0    0    0  0.00000000000E+00  0.00000000000E+00  0.18250000000E+03  0.18250000000E+03  0.00000000000E+00 0. -1.
         11   -1    0    0    0    0 -0.00000000000E+00 -0.00000000000E+00 -0.18250000000E+03  0.18250000000E+03  0.00000000000E+00 0.  1.
         23    2    1    2    0    0  0.51054668882E+01 -0.39182709507E+01 -0.17138969908E+03  0.19340046568E+03  0.89375010682E+02 0.  0.
        -11    1    3    3    0    0 -0.41966814293E+02  0.27509803854E+01 -0.81668822135E+02  0.91861732533E+02  0.00000000000E+00 0. -1.
         11    1    3    3    0    0  0.47072281181E+02 -0.66692513361E+01 -0.89720876943E+02  0.10153873314E+03  0.00000000000E+00 0.  1.
        -15    1    1    2    0    0 -0.44118905782E+01  0.12333645477E+01  0.12284963983E+03  0.12294786579E+03  0.17770000000E+01 0. -1.
         15    1    1    2    0    0 -0.69357631008E+00  0.26849064030E+01  0.48540059248E+02  0.48651668535E+02  0.17770000000E+01 0. -1.
</event>
<event>
 7    1  0.1421899E-005  0.1935736E+03  0.7546771E-02  0.1059967E+00
        -11   -1    0    0    0    0  0.00000000000E+00  0.00000000000E+00  0.18250000000E+03  0.18250000000E+03  0.00000000000E+00 0. -1.
         11   -1    0    0    0    0 -0.00000000000E+00 -0.00000000000E+00 -0.18250000000E+03  0.18250000000E+03  0.00000000000E+00 0. -1.
         23    2    1    2    0    0  0.93600140749E+01  0.42933458339E+01 -0.17068322286E+03  0.19357360288E+03  0.90730008724E+02 0.  0.
        -11    1    3    3    0    0 -0.11867561646E+02  0.11606042045E+02  0.43069173390E+01  0.17149016541E+02  0.00000000000E+00 0. -1.
         11    1    3    3    0    0  0.21227575721E+02 -0.73126962111E+01 -0.17499014020E+03  0.17642458634E+03  0.00000000000E+00 0. -1.
        -15    1    1    2    0    0 -0.58045076443E+01  0.28531149995E+01  0.10859823557E+03  0.10880517944E+03  0.17770000000E+01 0. -1.
         15    1    1    2    0    0 -0.35555064306E+01 -0.71464608334E+01  0.62084987288E+02  0.62621217682E+02  0.17770000000E+01 0.  1.
</event>
<event>
 6    1  0.1421899E-005  0.1318757E+03  0.7546771E-02  0.1117881E+00
        -11   -1    0    0    0    0  0.00000000000E+00  0.00000000000E+00  0.18250000000E+03  0.18250000000E+03  0.00000000000E+00 0. -1.
         11   -1    0    0    0    0 -0.00000000000E+00 -0.00000000000E+00 -0.18250000000E+03  0.18250000000E+03  0.00000000000E+00 0. -1.
        -11    1    1    2    0    0  0.51662372596E+02 -0.12266195209E+03  0.67650208785E+01  0.13326935410E+03  0.00000000000E+00 0. -1.
         11    1    1    2    0    0 -0.63053874565E+02  0.95439426809E+02 -0.87878001108E+02  0.14424638077E+03  0.00000000000E+00 0. -1.
        -15    1    1    2    0    0 -0.25723299038E+01  0.10099379902E+02  0.28144791710E+02  0.30064952768E+02  0.17770000000E+01 0. -1.
         15    1    1    2    0    0  0.13963831872E+02  0.17123145382E+02  0.52968188520E+02  0.57419312364E+02  0.17770000000E+01 0.  1.
</event>
<event>
 7    1  0.1552045E-005  0.1946491E+03  0.7546771E-02  0.1059175E+00
        -11   -1    0    0    0    0  0.00000000000E+00  0.00000000000E+00  0.18250000000E+03  0.18250000000E+03  0.00000000000E+00 0.  1.
         11   -1    0    0    0    0 -0.00000000000E+00 -0.00000000000E+00 -0.18250000000E+03  0.18250000000E+03  0.00000000000E+00 0. -1.
         23    2    1    2    0    0 -0.33297854223E+00  0.25241029669E+02  0.16825637963E+03  0.19464909156E+03  0.94556010425E+02 0.  0.
        -11    1    3    3    0    0  0.19614622895E+02  0.23783413030E+02  0.17162048757E+03  0.17436735910E+03  0.00000000000E+00 0.  1.
         11    1    3    3    0    0 -0.19947601437E+02  0.14576166390E+01 -0.33641079418E+01  0.20281732461E+02  0.00000000000E+00 0. -1.
        -15    1    1    2    0    0  0.68063812812E+00 -0.15958513403E+02 -0.12764826439E+03  0.12865603192E+03  0.17770000000E+01 0. -1.
         15    1    1    2    0    0 -0.34765958589E+00 -0.92825162662E+01 -0.40608115236E+02  0.41694876513E+02  0.17770000000E+01 0.  1.
</event>
<event>
 7    1  0.1421899E-005  0.1882454E+03  0.7546771E-02  0.1063971E+00
        -11   -1    0    0    0    0  0.00000000000E+00  0.00000000000E+00  0.18250000000E+03  0.18250000000E+03  0.00000000000E+00 0.  1.
         11   -1    0    0    0    0 -0.00000000000E+00 -0.00000000000E+00 -0.18250000000E+03  0.18250000000E+03  0.00000000000E+00 0. -1.
         23    2    1    2    0    0 -0.21363919029E+02  0.15596013883E+03 -0.47163866490E+02  0.18824538841E+03  0.91825454070E+02 0.  0.
        -11    1    3    3    0    0  0.24719918188E+02  0.12022849649E+03 -0.21843988113E+02  0.12467207201E+03  0.00000000000E+00 0. -1.
         11    1    3    3    0    0 -0.46083837217E+02  0.35731642348E+02 -0.25319878377E+02  0.63573316404E+02  0.00000000000E+00 0.  1.
        -15    1    1    2    0    0  0.16918139802E+02 -0.10527505705E+02  0.20827691421E+02  0.28879097799E+02  0.17770000000E+01 0. -1.
         15    1    1    2    0    0  0.44457792271E+01 -0.14543263313E+03  0.26336175069E+02  0.14787551379E+03  0.17770000000E+01 0.  1.
</event>
<event>
 7    1  0.1421899E-005  0.1933053E+03  0.7546771E-02  0.1060165E+00
        -11   -1    0    0    0    0  0.00000000000E+00  0.00000000000E+00  0.18250000000E+03  0.18250000000E+03  0.00000000000E+00 0.  1.
         11   -1    0    0    0    0 -0.00000000000E+00 -0.00000000000E+00 -0.18250000000E+03  0.18250000000E+03  0.00000000000E+00 0. -1.
         23    2    1    2    0    0 -0.18549251337E+02 -0.11701806223E+01  0.17032396778E+03  0.19330530222E+03  0.89505540710E+02 0.  0.
        -11    1    3    3    0    0  0.24902876475E+02  0.62158906960E+01  0.10873264606E+02  0.27875050441E+02  0.00000000000E+00 0. -1.
         11    1    3    3    0    0 -0.43452127813E+02 -0.73860713183E+01  0.15945070317E+03  0.16543025178E+03  0.00000000000E+00 0.  1.
        -15    1    1    2    0    0  0.29637979115E+01  0.22391547493E+01 -0.14315497884E+02  0.14895943096E+02  0.17770000000E+01 0. -1.
         15    1    1    2    0    0  0.15585453426E+02 -0.10689741269E+01 -0.15600846989E+03  0.15679875469E+03  0.17770000000E+01 0. -1.
</event>
<event>
 7    1  0.1421899E-005  0.1924360E+03  0.7546771E-02  0.1060810E+00
        -11   -1    0    0    0    0  0.00000000000E+00  0.00000000000E+00  0.18250000000E+03  0.18250000000E+03  0.00000000000E+00 0.  1.
         11   -1    0    0    0    0 -0.00000000000E+00 -0.00000000000E+00 -0.18250000000E+03  0.18250000000E+03  0.00000000000E+00 0. -1.
         23    2    1    2    0    0  0.64883977868E+02  0.73823101657E+02  0.13887170007E+03  0.19243599256E+03  0.89924864366E+02 0.  0.
        -11    1    3    3    0    0 -0.10095139495E+02 -0.11938225551E+02  0.44874414252E+01  0.16265614076E+02  0.00000000000E+00 0. -1.
         11    1    3    3    0    0  0.74979117363E+02  0.85761327208E+02  0.13438425864E+03  0.17617037848E+03  0.00000000000E+00 0.  1.
        -15    1    1    2    0    0 -0.31473748163E+02 -0.42901329726E+02 -0.97186044952E+02  0.11081248115E+03  0.17770000000E+01 0. -1.
         15    1    1    2    0    0 -0.33410229705E+02 -0.30921771931E+02 -0.41685655113E+02  0.61751526293E+02  0.17770000000E+01 0.  1.
</event>
<event>
 7    1  0.1421899E-005  0.1897704E+03  0.7546771E-02  0.1062811E+00
        -11   -1    0    0    0    0  0.00000000000E+00  0.00000000000E+00  0.18250000000E+03  0.18250000000E+03  0.00000000000E+00 0.  1.
         11   -1    0    0    0    0 -0.00000000000E+00 -0.00000000000E+00 -0.18250000000E+03  0.18250000000E+03  0.00000000000E+00 0. -1.
         23    2    1    2    0    0 -0.17690561856E+02 -0.78948018462E+01  0.16700795060E+03  0.18977035625E+03  0.88010503199E+02 0.  0.
        -11    1    3    3    0    0  0.16133528488E+01  0.28516947708E+02  0.14974036086E+02  0.32249666211E+02  0.00000000000E+00 0. -1.
         11    1    3    3    0    0 -0.19303914705E+02 -0.36411749555E+02  0.15203391451E+03  0.15752069004E+03  0.00000000000E+00 0.  1.
        -15    1    1    2    0    0  0.32177748198E+02 -0.24757552205E+01 -0.13211147759E+03  0.13600785670E+03  0.17770000000E+01 0. -1.
         15    1    1    2    0    0 -0.14487186342E+02  0.10370557067E+02 -0.34896473008E+02  0.39221787049E+02  0.17770000000E+01 0.  1.
</event>
<event>
 7    1  0.1421899E-005  0.1934680E+03  0.7546771E-02  0.1060045E+00
        -11   -1    0    0    0    0  0.00000000000E+00  0.00000000000E+00  0.18250000000E+03  0.18250000000E+03  0.00000000000E+00 0. -1.
         11   -1    0    0    0    0 -0.00000000000E+00 -0.00000000000E+00 -0.18250000000E+03  0.18250000000E+03  0.00000000000E+00 0.  1.
         23    2    1    2    0    0 -0.19267609726E+02 -0.24217752355E+02 -0.16833286394E+03  0.19346797201E+03  0.90200680685E+02 0.  0.
        -11    1    3    3    0    0 -0.42183810946E+02 -0.29776999546E+02 -0.16052969629E+03  0.16862955553E+03  0.00000000000E+00 0.  1.
         11    1    3    3    0    0  0.22916201220E+02  0.55592471907E+01 -0.78031676540E+01  0.24838416478E+02  0.00000000000E+00 0. -1.
        -15    1    1    2    0    0  0.11518041485E+02  0.67940361819E+01  0.57901755056E+02  0.59452461470E+02  0.17770000000E+01 0. -1.
         15    1    1    2    0    0  0.77495682415E+01  0.17423716173E+02  0.11043110889E+03  0.11207956652E+03  0.17770000000E+01 0. -1.
</event>
<event>
 7    1  0.1421899E-005  0.1828687E+03  0.7546771E-02  0.1068162E+00
        -11   -1    0    0    0    0  0.00000000000E+00  0.00000000000E+00  0.18250000000E+03  0.18250000000E+03  0.00000000000E+00 0.  1.
         11   -1    0    0    0    0 -0.00000000000E+00 -0.00000000000E+00 -0.18250000000E+03  0.18250000000E+03  0.00000000000E+00 0. -1.
         23    2    1    2    0    0 -0.56022511826E+02  0.78101731089E+02 -0.12658686054E+03  0.18286869156E+03  0.90434080199E+02 0.  0.
        -11    1    3    3    0    0 -0.14494533916E+02  0.88077638554E+02 -0.85905144989E+02  0.12388484920E+03  0.00000000000E+00 0. -1.
         11    1    3    3    0    0 -0.41527977910E+02 -0.99759074646E+01 -0.40681715554E+02  0.58983842359E+02  0.00000000000E+00 0.  1.
        -15    1    1    2    0    0  0.14928285108E+02 -0.13461454459E+02 -0.12213942097E+02  0.23588186936E+02  0.17770000000E+01 0. -1.
         15    1    1    2    0    0  0.41094226718E+02 -0.64640276630E+02  0.13880080264E+03  0.15854312150E+03  0.17770000000E+01 0.  1.
</event>
<event>
 7    1  0.1421899E-005  0.1891291E+03  0.7546771E-02  0.1063297E+00
        -11   -1    0    0    0    0  0.00000000000E+00  0.00000000000E+00  0.18250000000E+03  0.18250000000E+03  0.00000000000E+00 0.  1.
         11   -1    0    0    0    0 -0.00000000000E+00 -0.00000000000E+00 -0.18250000000E+03  0.18250000000E+03  0.00000000000E+00 0. -1.
         23    2    1    2    0    0 -0.41003359254E+02  0.55434183278E+01  0.16052172532E+03  0.18912913959E+03  0.91052743977E+02 0.  0.
        -11    1    3    3    0    0 -0.19872595120E+01 -0.35901865462E+02  0.98936650696E+02  0.10526801031E+03  0.00000000000E+00 0. -1.
         11    1    3    3    0    0 -0.39016099742E+02  0.41445283790E+02  0.61585074622E+02  0.83861129277E+02  0.00000000000E+00 0.  1.
        -15    1    1    2    0    0  0.52088786544E+02 -0.93094534832E+01 -0.15285380924E+03  0.16176326016E+03  0.17770000000E+01 0. -1.
         15    1    1    2    0    0 -0.11085427290E+02  0.37660351553E+01 -0.76679160770E+01  0.14107600255E+02  0.17770000000E+01 0.  1.
</event>
<event>
 7    1  0.1421899E-005  0.1940269E+03  0.7546771E-02  0.1059633E+00
        -11   -1    0    0    0    0  0.00000000000E+00  0.00000000000E+00  0.18250000000E+03  0.18250000000E+03  0.00000000000E+00 0. -1.
         11   -1    0    0    0    0 -0.00000000000E+00 -0.00000000000E+00 -0.18250000000E+03  0.18250000000E+03  0.00000000000E+00 0.  1.
         23    2    1    2    0    0 -0.51550936079E+01 -0.16262173094E+02  0.16975233873E+03  0.19402690784E+03  0.92409692113E+02 0.  0.
        -11    1    3    3    0    0  0.22771937051E+02 -0.27918466019E+02  0.19917938793E+02  0.41167051724E+02  0.00000000000E+00 0.  1.
         11    1    3    3    0    0 -0.27927030659E+02  0.11656292924E+02  0.14983439994E+03  0.15285985611E+03  0.00000000000E+00 0. -1.
        -15    1    1    2    0    0 -0.29755074656E+01  0.44074488197E+01 -0.61704690818E+02  0.61958904507E+02  0.17770000000E+01 0.  1.
         15    1    1    2    0    0  0.81306010734E+01  0.11854724275E+02 -0.10804764791E+03  0.10901418766E+03  0.17770000000E+01 0. -1.
</event>
<event>
 7    1  0.1421899E-005  0.1949635E+03  0.7546771E-02  0.1058945E+00
        -11   -1    0    0    0    0  0.00000000000E+00  0.00000000000E+00  0.18250000000E+03  0.18250000000E+03  0.00000000000E+00 0. -1.
         11   -1    0    0    0    0 -0.00000000000E+00 -0.00000000000E+00 -0.18250000000E+03  0.18250000000E+03  0.00000000000E+00 0.  1.
         23    2    1    2    0    0  0.11128451833E+03  0.12117187888E+03  0.29804435741E+02  0.19496346127E+03  0.10027750790E+03 0.  0.
        -11    1    3    3    0    0  0.79717319066E+02  0.94506508229E+02  0.65893025857E+02  0.14010075629E+03  0.00000000000E+00 0. -1.
         11    1    3    3    0    0  0.31567199263E+02  0.26665370651E+02 -0.36088590115E+02  0.54862704980E+02  0.00000000000E+00 0.  1.
        -15    1    1    2    0    0 -0.90811477720E+02 -0.81925426279E+02 -0.29091239075E+02  0.12572970165E+03  0.17770000000E+01 0. -1.
         15    1    1    2    0    0 -0.20473040609E+02 -0.39246452601E+02 -0.71319666619E+00  0.44306837080E+02  0.17770000000E+01 0.  1.
</event>
<event>
 7    1  0.1421899E-005  0.1909588E+03  0.7546771E-02  0.1061914E+00
        -11   -1    0    0    0    0  0.00000000000E+00  0.00000000000E+00  0.18250000000E+03  0.18250000000E+03  0.00000000000E+00 0. -1.
         11   -1    0    0    0    0 -0.00000000000E+00 -0.00000000000E+00 -0.18250000000E+03  0.18250000000E+03  0.00000000000E+00 0. -1.
         23    2    1    2    0    0  0.62307751004E+02  0.10265047989E+03  0.12296040750E+03  0.19095881855E+03  0.83226388330E+02 0.  0.
        -11    1    3    3    0    0  0.14119853523E+01 -0.12007692139E+02 -0.80301942618E-01  0.12090691524E+02  0.00000000000E+00 0. -1.
         11    1    3    3    0    0  0.60895765652E+02  0.11465817203E+03  0.12304070944E+03  0.17886812703E+03  0.00000000000E+00 0. -1.
        -15    1    1    2    0    0 -0.11611213613E+02 -0.37690234233E+02 -0.51959401152E+02  0.65255736416E+02  0.17770000000E+01 0.  1.
         15    1    1    2    0    0 -0.50696537391E+02 -0.64960245660E+02 -0.71001006343E+02  0.10878544503E+03  0.17770000000E+01 0. -1.
</event>
<event>
 7    1  0.1421899E-005  0.1920287E+03  0.7546771E-02  0.1061113E+00
        -11   -1    0    0    0    0  0.00000000000E+00  0.00000000000E+00  0.18250000000E+03  0.18250000000E+03  0.00000000000E+00 0. -1.
         11   -1    0    0    0    0 -0.00000000000E+00 -0.00000000000E+00 -0.18250000000E+03  0.18250000000E+03  0.00000000000E+00 0.  1.
         23    2    1    2    0    0  0.13149949666E+03 -0.19986279017E+02 -0.10448920859E+03  0.19202868151E+03  0.90914524919E+02 0.  0.
        -11    1    3    3    0    0  0.80672936639E+02  0.97955907456E+01 -0.10542639091E+03  0.13311198370E+03  0.00000000000E+00 0.  1.
         11    1    3    3    0    0  0.50826560025E+02 -0.29781869763E+02  0.93718232614E+00  0.58916697813E+02  0.00000000000E+00 0. -1.
        -15    1    1    2    0    0 -0.73920218652E+02  0.17570638206E+01  0.76409850581E+02  0.10634335425E+03  0.17770000000E+01 0.  1.
         15    1    1    2    0    0 -0.57579278011E+02  0.18229215196E+02  0.28079358005E+02  0.66627964234E+02  0.17770000000E+01 0. -1.
</event>
<event>
 7    1  0.1421899E-005  0.1919041E+03  0.7546771E-02  0.1061206E+00
        -11   -1    0    0    0    0  0.00000000000E+00  0.00000000000E+00  0.18250000000E+03  0.18250000000E+03  0.00000000000E+00 0. -1.
         11   -1    0    0    0    0 -0.00000000000E+00 -0.00000000000E+00 -0.18250000000E+03  0.18250000000E+03  0.00000000000E+00 0.  1.
         23    2    1    2    0    0  0.10942819125E+02  0.12597817608E+02  0.16823652901E+03  0.19190410198E+03  0.90803107685E+02 0.  0.
        -11    1    3    3    0    0 -0.80568631638E+01 -0.34193871975E+02  0.10649102210E+03  0.11213595191E+03  0.00000000000E+00 0. -1.
         11    1    3    3    0    0  0.18999682289E+02  0.46791689583E+02  0.61745506912E+02  0.79768150066E+02  0.00000000000E+00 0.  1.
        -15    1    1    2    0    0 -0.20441949244E+02  0.19465803035E+01 -0.12083398579E+03  0.12257924912E+03  0.17770000000E+01 0.  1.
         15    1    1    2    0    0  0.94991301192E+01 -0.14544397912E+02 -0.47402543219E+02  0.50516648902E+02  0.17770000000E+01 0. -1.
</event>
<event>
 7    1  0.1421899E-005  0.1936632E+03  0.7546771E-02  0.1059901E+00
        -11   -1    0    0    0    0  0.00000000000E+00  0.00000000000E+00  0.18250000000E+03  0.18250000000E+03  0.00000000000E+00 0. -1.
         11   -1    0    0    0    0 -0.00000000000E+00 -0.00000000000E+00 -0.18250000000E+03  0.18250000000E+03  0.00000000000E+00 0.  1.
         23    2    1    2    0    0  0.10332080122E+02  0.32084112327E+02  0.16724505912E+03  0.19366319924E+03  0.91642690910E+02 0.  0.
        -11    1    3    3    0    0 -0.70358987109E+01  0.39331670632E+02  0.17000955877E+03  0.17464173115E+03  0.00000000000E+00 0. -1.
         11    1    3    3    0    0  0.17367978833E+02 -0.72475583048E+01 -0.27644996496E+01  0.19021468094E+02  0.00000000000E+00 0.  1.
        -15    1    1    2    0    0 -0.12660291399E+02 -0.21024999316E+02 -0.13223389864E+03  0.13450388564E+03  0.17770000000E+01 0.  1.
         15    1    1    2    0    0  0.23282112767E+01 -0.11059113012E+02 -0.35011160487E+02  0.36832915116E+02  0.17770000000E+01 0. -1.
</event>
<event>
 7    1  0.1635290E-005  0.1937235E+03  0.7546771E-02  0.1059856E+00
        -11   -1    0    0    0    0  0.00000000000E+00  0.00000000000E+00  0.18250000000E+03  0.18250000000E+03  0.00000000000E+00 0. -1.
         11   -1    0    0    0    0 -0.00000000000E+00 -0.00000000000E+00 -0.18250000000E+03  0.18250000000E+03  0.00000000000E+00 0.  1.
         23    2    1    2    0    0  0.90086351380E+01 -0.90166477312E+01  0.17068013678E+03  0.19372353748E+03  0.90744941664E+02 0.  0.
        -11    1    3    3    0    0  0.12671995739E+02  0.16242255910E+02 -0.54365933193E+00  0.20607909126E+02  0.00000000000E+00 0.  1.
         11    1    3    3    0    0 -0.36633606007E+01 -0.25258903642E+02  0.17122379611E+03  0.17311562835E+03  0.00000000000E+00 0. -1.
        -15    1    1    2    0    0 -0.33130079071E+00  0.21112516798E+01 -0.49130340045E+02  0.49208893361E+02  0.17770000000E+01 0. -1.
         15    1    1    2    0    0 -0.86773343473E+01  0.69053960514E+01 -0.12154979674E+03  0.12206756916E+03  0.17770000000E+01 0.  1.
</event>
<event>
 7    1  0.1421899E-005  0.1973408E+03  0.7546771E-02  0.1057219E+00
        -11   -1    0    0    0    0  0.00000000000E+00  0.00000000000E+00  0.18250000000E+03  0.18250000000E+03  0.00000000000E+00 0. -1.
         11   -1    0    0    0    0 -0.00000000000E+00 -0.00000000000E+00 -0.18250000000E+03  0.18250000000E+03  0.00000000000E+00 0.  1.
         23    2    1    2    0    0  0.36237248726E+02  0.86430903163E+02 -0.10529153418E+03  0.16765916419E+03  0.90773613730E+02 0.  0.
        -11    1    3    3    0    0  0.42496765723E+02  0.32174163762E+02 -0.50970814796E+01  0.53545608133E+02  0.00000000000E+00 0. -1.
         11    1    3    3    0    0 -0.62595169974E+01  0.54256739401E+02 -0.10019445270E+03  0.11411355606E+03  0.00000000000E+00 0.  1.
        -15    1    1    2    0    0 -0.28280473245E+01 -0.10335714153E+03  0.21612201269E+02  0.10564535735E+03  0.17770000000E+01 0. -1.
         15    1    1    2    0    0 -0.33409201401E+02  0.16926238369E+02  0.83679332915E+02  0.91695478458E+02  0.17770000000E+01 0.  1.
</event>
<event>
 7    1  0.1421899E-005  0.1912650E+03  0.7546771E-02  0.1061684E+00
        -11   -1    0    0    0    0  0.00000000000E+00  0.00000000000E+00  0.18250000000E+03  0.18250000000E+03  0.00000000000E+00 0. -1.
         11   -1    0    0    0    0 -0.00000000000E+00 -0.00000000000E+00 -0.18250000000E+03  0.18250000000E+03  0.00000000000E+00 0.  1.
         23    2    1    2    0    0 -0.76044857839E+02  0.94887270199E+01 -0.14993395505E+03  0.19126501893E+03  0.90715270192E+02 0.  0.
        -11    1    3    3    0    0 -0.51517131641E+02  0.18233741229E+02 -0.19139239182E+02  0.57903321564E+02  0.00000000000E+00 0. -1.
         11    1    3    3    0    0 -0.24527726198E+02 -0.87450142087E+01 -0.13079471587E+03  0.13336169737E+03  0.00000000000E+00 0.  1.
        -15    1    1    2    0    0  0.49731828974E+02  0.37975963780E+01  0.54788804717E+02  0.74112397091E+02  0.17770000000E+01 0.  1.
         15    1    1    2    0    0  0.26313028865E+02 -0.13286323398E+02  0.95145150332E+02  0.99622583977E+02  0.17770000000E+01 0. -1.
</event>
<event>
 7    1  0.1421899E-005  0.1892387E+03  0.7546771E-02  0.1063214E+00
        -11   -1    0    0    0    0  0.00000000000E+00  0.00000000000E+00  0.18250000000E+03  0.18250000000E+03  0.00000000000E+00 0. -1.
         11   -1    0    0    0    0 -0.00000000000E+00 -0.00000000000E+00 -0.18250000000E+03  0.18250000000E+03  0.00000000000E+00 0.  1.
         23    2    1    2    0    0 -0.10973365438E+02  0.23082271281E+02 -0.16873686436E+03  0.18923867118E+03  0.81767593086E+02 0.  0.
        -11    1    3    3    0    0  0.21651188945E+02 -0.21228948504E+02 -0.67962232436E+02  0.74419804319E+02  0.00000000000E+00 0. -1.
         11    1    3    3    0    0 -0.32624554383E+02  0.44311219785E+02 -0.10077463193E+03  0.11481886686E+03  0.00000000000E+00 0.  1.
        -15    1    1    2    0    0  0.21278491001E+02 -0.28603545807E+02  0.10404459581E+03  0.10999714841E+03  0.17770000000E+01 0. -1.
         15    1    1    2    0    0 -0.10305125562E+02  0.55212745256E+01  0.64692268548E+02  0.65764180404E+02  0.17770000000E+01 0.  1.
</event>
<event>
 7    1  0.1421899E-005  0.2063032E+03  0.7546771E-02  0.1050943E+00
        -11   -1    0    0    0    0  0.00000000000E+00  0.00000000000E+00  0.18250000000E+03  0.18250000000E+03  0.00000000000E+00 0.  1.
         11   -1    0    0    0    0 -0.00000000000E+00 -0.00000000000E+00 -0.18250000000E+03  0.18250000000E+03  0.00000000000E+00 0. -1.
         23    2    1    2    0    0  0.88885184065E+02  0.60307413846E+02 -0.72120528538E+02  0.15869682684E+03  0.91900773126E+02 0.  0.
        -11    1    3    3    0    0  0.73387689084E+02  0.32447852346E+02 -0.43506148206E+00  0.80242166655E+02  0.00000000000E+00 0.  1.
         11    1    3    3    0    0  0.15497494981E+02  0.27859561500E+02 -0.71685467056E+02  0.78454660185E+02  0.00000000000E+00 0. -1.
        -15    1    1    2    0    0 -0.13501103336E+03 -0.56435855024E+02  0.61734228189E+02  0.15883090858E+03  0.17770000000E+01 0.  1.
         15    1    1    2    0    0  0.46125849292E+02 -0.38715588220E+01  0.10386300350E+02  0.47472264583E+02  0.17770000000E+01 0. -1.
</event>
<event>
 7    1  0.1421899E-005  0.1927924E+03  0.7546771E-02  0.1060545E+00
        -11   -1    0    0    0    0  0.00000000000E+00  0.00000000000E+00  0.18250000000E+03  0.18250000000E+03  0.00000000000E+00 0. -1.
         11   -1    0    0    0    0 -0.00000000000E+00 -0.00000000000E+00 -0.18250000000E+03  0.18250000000E+03  0.00000000000E+00 0.  1.
         23    2    1    2    0    0 -0.22468900371E+02 -0.12146688973E+02 -0.16807803213E+03  0.19279239852E+03  0.90919142683E+02 0.  0.
        -11    1    3    3    0    0  0.35205197717E+02  0.12544572292E+01 -0.62346469159E+02  0.71610486843E+02  0.00000000000E+00 0. -1.
         11    1    3    3    0    0 -0.57674098088E+02 -0.13401146203E+02 -0.10573156297E+03  0.12118191168E+03  0.00000000000E+00 0.  1.
        -15    1    1    2    0    0 -0.13323673922E+01  0.60590712552E+01  0.81584368818E+01  0.10402180959E+02  0.17770000000E+01 0.  1.
         15    1    1    2    0    0  0.23801267763E+02  0.60876177182E+01  0.15991959525E+03  0.16180542052E+03  0.17770000000E+01 0. -1.
</event>
<event>
 7    1  0.1421899E-005  0.1914418E+03  0.7546771E-02  0.1061552E+00
        -11   -1    0    0    0    0  0.00000000000E+00  0.00000000000E+00  0.18250000000E+03  0.18250000000E+03  0.00000000000E+00 0.  1.
         11   -1    0    0    0    0 -0.00000000000E+00 -0.00000000000E+00 -0.18250000000E+03  0.18250000000E+03  0.00000000000E+00 0. -1.
         23    2    1    2    0    0  0.61980839970E+01  0.91040404219E+02  0.14162292311E+03  0.19144176287E+03  0.90918231273E+02 0.  0.
        -11    1    3    3    0    0  0.41595361172E+02  0.13767215548E+02  0.47447718251E+02  0.64583250632E+02  0.00000000000E+00 0. -1.
         11    1    3    3    0    0 -0.35397277175E+02  0.77273188672E+02  0.94175204854E+02  0.12685851224E+03  0.00000000000E+00 0.  1.
        -15    1    1    2    0    0 -0.20331066639E+02 -0.36011809072E+02 -0.42717817204E+02  0.59482537765E+02  0.17770000000E+01 0.  1.
         15    1    1    2    0    0  0.14132982642E+02 -0.55028595148E+02 -0.98905105902E+02  0.11407569936E+03  0.17770000000E+01 0. -1.
</event>
<event>
 7    1  0.1421899E-005  0.1938815E+03  0.7546771E-02  0.1059740E+00
        -11   -1    0    0    0    0  0.00000000000E+00  0.00000000000E+00  0.18250000000E+03  0.18250000000E+03  0.00000000000E+00 0. -1.
         11   -1    0    0    0    0 -0.00000000000E+00 -0.00000000000E+00 -0.18250000000E+03  0.18250000000E+03  0.00000000000E+00 0.  1.
         23    2    1    2    0    0  0.17066238883E+02 -0.32797583741E+01  0.17011789811E+03  0.19388152535E+03  0.91367025182E+02 0.  0.
        -11    1    3    3    0    0  0.19465283041E+02  0.38382036362E+02  0.46261443510E+02  0.63183851693E+02  0.00000000000E+00 0.  1.
         11    1    3    3    0    0 -0.23990441578E+01 -0.41661794736E+02  0.12385645460E+03  0.13069767366E+03  0.00000000000E+00 0. -1.
        -15    1    1    2    0    0 -0.37532087317E+01 -0.11783504067E+01 -0.42153691374E+02  0.42374125488E+02  0.17770000000E+01 0.  1.
         15    1    1    2    0    0 -0.13313030152E+02  0.44581087808E+01 -0.12796420674E+03  0.12874434916E+03  0.17770000000E+01 0.  1.
</event>
<event>
 7    1  0.1421899E-005  0.1935380E+03  0.7546771E-02  0.1059993E+00
        -11   -1    0    0    0    0  0.00000000000E+00  0.00000000000E+00  0.18250000000E+03  0.18250000000E+03  0.00000000000E+00 0. -1.
         11   -1    0    0    0    0 -0.00000000000E+00 -0.00000000000E+00 -0.18250000000E+03  0.18250000000E+03  0.00000000000E+00 0.  1.
         23    2    1    2    0    0  0.47087159670E+01  0.23048454712E+01 -0.17122249612E+03  0.19353799152E+03  0.90068455439E+02 0.  0.
        -11    1    3    3    0    0  0.15098314545E+02 -0.32653078833E+02 -0.14291096625E+03  0.14736935548E+03  0.00000000000E+00 0.  1.
         11    1    3    3    0    0 -0.10389598578E+02  0.34957924304E+02 -0.28311529866E+02  0.46168636039E+02  0.00000000000E+00 0. -1.
        -15    1    1    2    0    0  0.80643404867E+00 -0.22062805501E+01  0.38225774336E+02  0.38339086613E+02  0.17770000000E+01 0. -1.
         15    1    1    2    0    0 -0.55151500157E+01 -0.98564921054E-01  0.13299672178E+03  0.13312292187E+03  0.17770000000E+01 0. -1.
</event>
<event>
 7    1  0.1421899E-005  0.1887677E+03  0.7546771E-02  0.1063572E+00
        -11   -1    0    0    0    0  0.00000000000E+00  0.00000000000E+00  0.18250000000E+03  0.18250000000E+03  0.00000000000E+00 0.  1.
         11   -1    0    0    0    0 -0.00000000000E+00 -0.00000000000E+00 -0.18250000000E+03  0.18250000000E+03  0.00000000000E+00 0. -1.
         23    2    1    2    0    0 -0.11999454567E+02  0.51084178526E+02 -0.14110489590E+03  0.17623231345E+03  0.91616900479E+02 0.  0.
        -11    1    3    3    0    0 -0.88825813680E+01 -0.14098724286E+02  0.39928249969E+01  0.17135254002E+02  0.00000000000E+00 0.  1.
         11    1    3    3    0    0 -0.31168731993E+01  0.65182902812E+02 -0.14509772089E+03  0.15909705945E+03  0.00000000000E+00 0. -1.
        -15    1    1    2    0    0  0.15634959494E+02 -0.78442951937E+02  0.13980750047E+03  0.16108086039E+03  0.17770000000E+01 0.  1.
         15    1    1    2    0    0 -0.36355049264E+01  0.27358773411E+02  0.12973954238E+01  0.27686826154E+02  0.17770000000E+01 0. -1.
</event>
<event>
 7    1  0.1421899E-005  0.3650000E+03  0.7546771E-02  0.9765871E-01
        -11   -1    0    0    0    0  0.00000000000E+00  0.00000000000E+00  0.18250000000E+03  0.18250000000E+03  0.00000000000E+00 0.  1.
         11   -1    0    0    0    0 -0.00000000000E+00 -0.00000000000E+00 -0.18250000000E+03  0.18250000000E+03  0.00000000000E+00 0. -1.
         23    2    1    2    0    0  0.14868098032E+02 -0.19776409925E+02 -0.12635415656E+03  0.15740810465E+03  0.90552591354E+02 0.  0.
        -11    1    3    3    0    0 -0.25368597638E+02  0.21924634789E+02 -0.30109204665E+02  0.45064615413E+02  0.00000000000E+00 0.  1.
         11    1    3    3    0    0  0.40236695670E+02 -0.41701044714E+02 -0.96244951899E+02  0.11234348924E+03  0.00000000000E+00 0. -1.
        -15    1    1    2    0    0 -0.81750999930E+01 -0.29057757142E+02  0.14991258429E+03  0.15293176965E+03  0.17770000000E+01 0.  1.
         15    1    1    2    0    0 -0.66929980385E+01  0.48834167067E+02 -0.23558427723E+02  0.54660125701E+02  0.17770000000E+01 0. -1.
</event>
<event>
 7    1  0.1421899E-005  0.1937116E+03  0.7546771E-02  0.1059865E+00
        -11   -1    0    0    0    0  0.00000000000E+00  0.00000000000E+00  0.18250000000E+03  0.18250000000E+03  0.00000000000E+00 0. -1.
         11   -1    0    0    0    0 -0.00000000000E+00 -0.00000000000E+00 -0.18250000000E+03  0.18250000000E+03  0.00000000000E+00 0.  1.
         23    2    1    2    0    0  0.27844017516E+01 -0.27335171277E+01 -0.17117758604E+03  0.19371156740E+03  0.90593489697E+02 0.  0.
        -11    1    3    3    0    0  0.24406044767E+02 -0.27154213157E+02 -0.25765639569E+02  0.44686401687E+02  0.00000000000E+00 0. -1.
         11    1    3    3    0    0 -0.21621643016E+02  0.24420696029E+02 -0.14541194647E+03  0.14902516571E+03  0.00000000000E+00 0.  1.
        -15    1    1    2    0    0 -0.19104322317E+01 -0.18632610434E+00  0.66578159757E+02  0.66629524645E+02  0.17770000000E+01 0. -1.
         15    1    1    2    0    0 -0.87396951988E+00  0.29198432320E+01  0.10459942628E+03  0.10465890795E+03  0.17770000000E+01 0.  1.
</event>
<event>
 7    1  0.1421899E-005  0.3650000E+03  0.7546771E-02  0.9765871E-01
        -11   -1    0    0    0    0  0.00000000000E+00  0.00000000000E+00  0.18250000000E+03  0.18250000000E+03  0.00000000000E+00 0. -1.
         11   -1    0    0    0    0 -0.00000000000E+00 -0.00000000000E+00 -0.18250000000E+03  0.18250000000E+03  0.00000000000E+00 0.  1.
         23    2    1    2    0    0 -0.51567372182E+02  0.89322428387E+02 -0.20996982775E+02  0.13936580700E+03  0.91346947343E+02 0.  0.
        -11    1    3    3    0    0 -0.69938158664E+02  0.30776355798E+02 -0.11110988648E+02  0.77213885942E+02  0.00000000000E+00 0.  1.
         11    1    3    3    0    0  0.18370786482E+02  0.58546072589E+02 -0.98859941279E+01  0.62151921060E+02  0.00000000000E+00 0. -1.
        -15    1    1    2    0    0 -0.39822367030E+01  0.53440194832E+02  0.45705837043E+02  0.70454906867E+02  0.17770000000E+01 0.  1.
         15    1    1    2    0    0  0.55549608885E+02 -0.14276262322E+03 -0.24708854268E+02  0.15517928613E+03  0.17770000000E+01 0. -1.
</event>
<event>
 7    1  0.1421899E-005  0.1930566E+03  0.7546771E-02  0.1060349E+00
        -11   -1    0    0    0    0  0.00000000000E+00  0.00000000000E+00  0.18250000000E+03  0.18250000000E+03  0.00000000000E+00 0.  1.
         11   -1    0    0    0    0 -0.00000000000E+00 -0.00000000000E+00 -0.18250000000E+03  0.18250000000E+03  0.00000000000E+00 0. -1.
         23    2    1    2    0    0 -0.43591410793E+01  0.34764806550E+02  0.16796436856E+03  0.19305661276E+03  0.88494252565E+02 0.  0.
        -11    1    3    3    0    0  0.99497129030E+01 -0.25745066842E+02  0.25344975821E+02  0.37472297139E+02  0.00000000000E+00 0. -1.
         11    1    3    3    0    0 -0.14308853982E+02  0.60509873391E+02  0.14261939274E+03  0.15558431562E+03  0.00000000000E+00 0.  1.
        -15    1    1    2    0    0  0.15607987553E+01 -0.27617716572E+01 -0.81776606446E+01  0.89495998826E+01  0.17770000000E+01 0.  1.
         15    1    1    2    0    0  0.27983423240E+01 -0.32003034892E+02 -0.15978670792E+03  0.16299378736E+03  0.17770000000E+01 0. -1.
</event>
<event>
 7    1  0.1421899E-005  0.1941161E+03  0.7546771E-02  0.1059567E+00
        -11   -1    0    0    0    0  0.00000000000E+00  0.00000000000E+00  0.18250000000E+03  0.18250000000E+03  0.00000000000E+00 0.  1.
         11   -1    0    0    0    0 -0.00000000000E+00 -0.00000000000E+00 -0.18250000000E+03  0.18250000000E+03  0.00000000000E+00 0. -1.
         23    2    1    2    0    0 -0.68534172209E+02  0.51146988388E+02  0.11496864748E+03  0.17088388630E+03  0.93115871437E+02 0.  0.
        -11    1    3    3    0    0  0.57744397164E+01 -0.20460494340E+02  0.32252358760E+02  0.38628883342E+02  0.00000000000E+00 0. -1.
         11    1    3    3    0    0 -0.74308611925E+02  0.71607482728E+02  0.82716288718E+02  0.13225500296E+03  0.00000000000E+00 0.  1.
        -15    1    1    2    0    0  0.17016846279E+01  0.38408643072E+02 -0.77848845140E+01  0.39266802125E+02  0.17770000000E+01 0.  1.
         15    1    1    2    0    0  0.66832487581E+02 -0.89555631460E+02 -0.10718376296E+03  0.15484931157E+03  0.17770000000E+01 0. -1.
</event>
