<event>
 7    1  0.2279257E-006  0.3715586E+03  0.7546771E-02  0.9744382E-01
        -11   -1    0    0    0    0  0.00000000000E+00  0.00000000000E+00  0.50000000000E+03  0.50000000000E+03  0.00000000000E+00 0.  1.
         11   -1    0    0    0    0 -0.00000000000E+00 -0.00000000000E+00 -0.50000000000E+03  0.50000000000E+03  0.00000000000E+00 0. -1.
         23    2    1    2    0    0 -0.83600634910E+02  0.54305419243E+02  0.29130497815E+03  0.32094804651E+03  0.90614091340E+02 0.  0.
        -11    1    1    2    0    0  0.87917065725E+02 -0.16061348656E+03  0.14273466726E+03  0.23216220138E+03  0.00000000000E+00 0.  1.
         11    1    1    2    0    0 -0.43164308156E+01  0.10630806732E+03 -0.43403964541E+03  0.44688975211E+03  0.00000000000E+00 0. -1.
        -15    1    3    3    0    0 -0.11609328537E+02  0.27140817852E+01 -0.39540679301E+01  0.12686021095E+02  0.17770000000E+01 0. -1.
         15    1    3    3    0    0 -0.71991306372E+02  0.51591337458E+02  0.29525904608E+03  0.30826202542E+03  0.17770000000E+01 0.  1.
</event>
<event>
 7    1  0.2279257E-006  0.5223999E+03  0.7546771E-02  0.9351038E-01
        -11   -1    0    0    0    0  0.00000000000E+00  0.00000000000E+00  0.50000000000E+03  0.50000000000E+03  0.00000000000E+00 0.  1.
         11   -1    0    0    0    0 -0.00000000000E+00 -0.00000000000E+00 -0.50000000000E+03  0.50000000000E+03  0.00000000000E+00 0. -1.
         23    2    1    2    0    0  0.70935076163E+02  0.32910400747E+02 -0.19189074696E+03  0.23027893422E+03  0.10045620574E+03 0.  0.
        -11    1    1    2    0    0 -0.29020479742E+02  0.18659312722E+02  0.47635230410E+03  0.47760012125E+03  0.00000000000E+00 0.  1.
         11    1    1    2    0    0 -0.41914596421E+02 -0.51569713469E+02 -0.28446155714E+03  0.29212094453E+03  0.00000000000E+00 0. -1.
        -15    1    3    3    0    0  0.68272320848E+02  0.64708593230E+02 -0.15642232608E+03  0.18253606125E+03  0.17770000000E+01 0.  1.
         15    1    3    3    0    0  0.26627553147E+01 -0.31798192483E+02 -0.35468420877E+02  0.47742872972E+02  0.17770000000E+01 0. -1.
</event>
<event>
 7    1  0.2279257E-006  0.4194093E+03  0.7546771E-02  0.9600729E-01
        -11   -1    0    0    0    0  0.00000000000E+00  0.00000000000E+00  0.50000000000E+03  0.50000000000E+03  0.00000000000E+00 0.  1.
         11   -1    0    0    0    0 -0.00000000000E+00 -0.00000000000E+00 -0.50000000000E+03  0.50000000000E+03  0.00000000000E+00 0. -1.
         23    2    1    2    0    0 -0.11913645414E+03 -0.33735814371E+02  0.43623934058E+03  0.46228951528E+03  0.89862304638E+02 0.  0.
        -11    1    1    2    0    0  0.11827533497E+03  0.84028704582E+02 -0.58174640171E+02  0.15631432057E+03  0.00000000000E+00 0.  1.
         11    1    1    2    0    0  0.86111916799E+00 -0.50292890211E+02 -0.37806470041E+03  0.38139616415E+03  0.00000000000E+00 0. -1.
        -15    1    3    3    0    0 -0.71574784328E+01  0.12759856443E+01  0.18336557629E+03  0.18351825504E+03  0.17770000000E+01 0.  1.
         15    1    3    3    0    0 -0.11197897571E+03 -0.35011800015E+02  0.25287376429E+03  0.27877126024E+03  0.17770000000E+01 0. -1.
</event>
<event>
 7    1  0.2279257E-006  0.5105125E+03  0.7546771E-02  0.9376590E-01
        -11   -1    0    0    0    0  0.00000000000E+00  0.00000000000E+00  0.50000000000E+03  0.50000000000E+03  0.00000000000E+00 0. -1.
         11   -1    0    0    0    0 -0.00000000000E+00 -0.00000000000E+00 -0.50000000000E+03  0.50000000000E+03  0.00000000000E+00 0.  1.
         23    2    1    2    0    0  0.69962119413E+02 -0.41665717647E+02 -0.32348120473E+03  0.34536895647E+03  0.89492435987E+02 0.  0.
        -11    1    1    2    0    0 -0.10093950746E+03 -0.46373284398E+01  0.47894441468E+03  0.48948752929E+03  0.00000000000E+00 0. -1.
         11    1    1    2    0    0  0.30977388052E+02  0.46303046086E+02 -0.15546320995E+03  0.16514351424E+03  0.00000000000E+00 0.  1.
        -15    1    3    3    0    0  0.50445417161E+02 -0.33079288181E+02 -0.31745502544E+03  0.32314057363E+03  0.17770000000E+01 0. -1.
         15    1    3    3    0    0  0.19516702252E+02 -0.85864294660E+01 -0.60261792882E+01  0.22228382838E+02  0.17770000000E+01 0.  1.
</event>
<event>
 7    1  0.2279257E-006  0.5295289E+03  0.7546771E-02  0.9336057E-01
        -11   -1    0    0    0    0  0.00000000000E+00  0.00000000000E+00  0.50000000000E+03  0.50000000000E+03  0.00000000000E+00 0.  1.
         11   -1    0    0    0    0 -0.00000000000E+00 -0.00000000000E+00 -0.50000000000E+03  0.50000000000E+03  0.00000000000E+00 0. -1.
         23    2    1    2    0    0  0.53427226059E+02 -0.30441445458E+01  0.30603810391E+02  0.11034315253E+03  0.91516571176E+02 0.  0.
        -11    1    1    2    0    0  0.17326667789E+03  0.76538129481E+01  0.38162387555E+03  0.41918576420E+03  0.00000000000E+00 0.  1.
         11    1    1    2    0    0 -0.22669390395E+03 -0.46096684023E+01 -0.41222768594E+03  0.47047108326E+03  0.00000000000E+00 0. -1.
        -15    1    3    3    0    0  0.70664915422E+02 -0.24226879951E+02  0.85811562732E+01  0.75214798781E+02  0.17770000000E+01 0.  1.
         15    1    3    3    0    0 -0.17237689363E+02  0.21182735405E+02  0.22022654118E+02  0.35128353751E+02  0.17770000000E+01 0. -1.
</event>
<event>
 7    1  0.2279257E-006  0.5074331E+03  0.7546771E-02  0.9383329E-01
        -11   -1    0    0    0    0  0.00000000000E+00  0.00000000000E+00  0.50000000000E+03  0.50000000000E+03  0.00000000000E+00 0. -1.
         11   -1    0    0    0    0 -0.00000000000E+00 -0.00000000000E+00 -0.50000000000E+03  0.50000000000E+03  0.00000000000E+00 0.  1.
         23    2    1    2    0    0  0.26619277385E+02  0.24805207801E+03  0.41471223185E+03  0.49256690506E+03  0.91637881771E+02 0.  0.
        -11    1    1    2    0    0 -0.11714955181E+02 -0.13139419286E+03 -0.83895179306E+02  0.15633321848E+03  0.00000000000E+00 0. -1.
         11    1    1    2    0    0 -0.14904322203E+02 -0.11665788516E+03 -0.33081705255E+03  0.35109987646E+03  0.00000000000E+00 0.  1.
        -15    1    3    3    0    0 -0.32754803727E+02  0.59143626465E+02  0.11199015175E+03  0.13082735775E+03  0.17770000000E+01 0.  1.
         15    1    3    3    0    0  0.59374081111E+02  0.18890845155E+03  0.30272208011E+03  0.36173954731E+03  0.17770000000E+01 0. -1.
</event>
<event>
 7    1  0.2279257E-006  0.5161756E+03  0.7546771E-02  0.9364326E-01
        -11   -1    0    0    0    0  0.00000000000E+00  0.00000000000E+00  0.50000000000E+03  0.50000000000E+03  0.00000000000E+00 0.  1.
         11   -1    0    0    0    0 -0.00000000000E+00 -0.00000000000E+00 -0.50000000000E+03  0.50000000000E+03  0.00000000000E+00 0.  1.
         23    2    1    2    0    0 -0.13843201110E+01  0.53738599881E+02  0.25148927000E+03  0.27247161216E+03  0.90023180618E+02 0.  0.
        -11    1    1    2    0    0 -0.49974936094E+02 -0.65107496353E+02  0.22946710102E+03  0.24370398185E+03  0.00000000000E+00 0.  1.
         11    1    1    2    0    0  0.51359256205E+02  0.11368896473E+02 -0.48095637102E+03  0.48382440599E+03  0.00000000000E+00 0.  1.
        -15    1    3    3    0    0 -0.37010744442E+02  0.11076081017E+02  0.16630397310E+03  0.17074145359E+03  0.17770000000E+01 0.  1.
         15    1    3    3    0    0  0.35626424331E+02  0.42662518864E+02  0.85185296893E+02  0.10173015857E+03  0.17770000000E+01 0. -1.
</event>
<event>
 7    1  0.2279257E-006  0.5330516E+03  0.7546771E-02  0.9328747E-01
        -11   -1    0    0    0    0  0.00000000000E+00  0.00000000000E+00  0.50000000000E+03  0.50000000000E+03  0.00000000000E+00 0. -1.
         11   -1    0    0    0    0 -0.00000000000E+00 -0.00000000000E+00 -0.50000000000E+03  0.50000000000E+03  0.00000000000E+00 0.  1.
         23    2    1    2    0    0 -0.30047200451E+03  0.13486691752E+03 -0.11316696267E+03  0.36020147479E+03  0.92009945475E+02 0.  0.
        -11    1    1    2    0    0  0.43223760918E+03 -0.39795106275E+02  0.17212738308E+03  0.46694843107E+03  0.00000000000E+00 0. -1.
         11    1    1    2    0    0 -0.13176560467E+03 -0.95071811245E+02 -0.58960420412E+02  0.17285009414E+03  0.00000000000E+00 0.  1.
        -15    1    3    3    0    0 -0.29726915634E+03  0.11065605533E+03 -0.10124925805E+03  0.33296889326E+03  0.17770000000E+01 0.  1.
         15    1    3    3    0    0 -0.32028481659E+01  0.24210862193E+02 -0.11917704614E+02  0.27232581530E+02  0.17770000000E+01 0. -1.
</event>
<event>
 6    1  0.2279257E-006  0.5272170E+03  0.7546771E-02  0.9340888E-01
        -11   -1    0    0    0    0  0.00000000000E+00  0.00000000000E+00  0.50000000000E+03  0.50000000000E+03  0.00000000000E+00 0.  1.
         11   -1    0    0    0    0 -0.00000000000E+00 -0.00000000000E+00 -0.50000000000E+03  0.50000000000E+03  0.00000000000E+00 0. -1.
        -11    1    1    2    0    0  0.69321698844E+02  0.54972125917E+02  0.12391449184E+03  0.15225713069E+03  0.00000000000E+00 0.  1.
         11    1    1    2    0    0 -0.19186229586E+03 -0.23699032765E+02 -0.43145221135E+03  0.47278303206E+03  0.00000000000E+00 0. -1.
        -15    1    1    2    0    0  0.12988625772E+03 -0.45226494580E+02  0.32406538339E+03  0.35204744879E+03  0.17770000000E+01 0.  1.
         15    1    1    2    0    0 -0.73456607120E+01  0.13953401429E+02 -0.16527663882E+02  0.22912388464E+02  0.17770000000E+01 0. -1.
</event>
<event>
 7    1  0.2279257E-006  0.4078731E+03  0.7546771E-02  0.9633420E-01
        -11   -1    0    0    0    0  0.00000000000E+00  0.00000000000E+00  0.50000000000E+03  0.50000000000E+03  0.00000000000E+00 0. -1.
         11   -1    0    0    0    0 -0.00000000000E+00 -0.00000000000E+00 -0.50000000000E+03  0.50000000000E+03  0.00000000000E+00 0.  1.
         23    2    1    2    0    0  0.70042091999E+02 -0.13388217185E+03  0.33572918787E+03  0.37925261205E+03  0.91039143089E+02 0.  0.
        -11    1    1    2    0    0  0.34855962327E+02  0.14234247639E+03  0.96778707704E+02  0.17562014964E+03  0.00000000000E+00 0. -1.
         11    1    1    2    0    0 -0.10489805433E+03 -0.84603045407E+01 -0.43250789557E+03  0.44512723831E+03  0.00000000000E+00 0.  1.
        -15    1    3    3    0    0  0.33573728509E+02 -0.77696479340E+01  0.13544477427E+03  0.13977126773E+03  0.17770000000E+01 0. -1.
         15    1    3    3    0    0  0.36468363490E+02 -0.12611252391E+03  0.20028441359E+03  0.23948134433E+03  0.17770000000E+01 0.  1.
</event>
<event>
 7    1  0.2279257E-006  0.4576373E+03  0.7546771E-02  0.9499932E-01
        -11   -1    0    0    0    0  0.00000000000E+00  0.00000000000E+00  0.50000000000E+03  0.50000000000E+03  0.00000000000E+00 0. -1.
         11   -1    0    0    0    0 -0.00000000000E+00 -0.00000000000E+00 -0.50000000000E+03  0.50000000000E+03  0.00000000000E+00 0. -1.
         23    2    1    2    0    0  0.43362029190E+02 -0.11402640821E+03  0.38651069618E+03  0.41559094968E+03  0.91885971988E+02 0.  0.
        -11    1    1    2    0    0  0.14345742889E+02 -0.27730473136E+02  0.84008571166E+02  0.89622650645E+02  0.00000000000E+00 0. -1.
         11    1    1    2    0    0 -0.57707772079E+02  0.14175688134E+03 -0.47051926734E+03  0.49478639968E+03  0.00000000000E+00 0. -1.
        -15    1    3    3    0    0  0.18180528824E+02 -0.29808237351E+02  0.23595615876E+02  0.42177878798E+02  0.17770000000E+01 0.  1.
         15    1    3    3    0    0  0.25181500366E+02 -0.84218170857E+02  0.36291508030E+03  0.37341307088E+03  0.17770000000E+01 0. -1.
</event>
<event>
 7    1  0.2279257E-006  0.5333012E+03  0.7546771E-02  0.9328231E-01
        -11   -1    0    0    0    0  0.00000000000E+00  0.00000000000E+00  0.50000000000E+03  0.50000000000E+03  0.00000000000E+00 0.  1.
         11   -1    0    0    0    0 -0.00000000000E+00 -0.00000000000E+00 -0.50000000000E+03  0.50000000000E+03  0.00000000000E+00 0. -1.
         23    2    1    2    0    0  0.21287981929E+02  0.59185092495E+02  0.27930678507E+03  0.30039685032E+03  0.90939178262E+02 0.  0.
        -11    1    1    2    0    0 -0.14306114045E+03  0.13061942918E+03  0.12929239227E+03  0.23290437498E+03  0.00000000000E+00 0.  1.
         11    1    1    2    0    0  0.12177315852E+03 -0.18980452167E+03 -0.40859917735E+03  0.46669877470E+03  0.00000000000E+00 0. -1.
        -15    1    3    3    0    0  0.13325383479E+02  0.49671633249E+02  0.28275433148E+03  0.28739868944E+03  0.17770000000E+01 0.  1.
         15    1    3    3    0    0  0.79625984499E+01  0.95134592459E+01 -0.34475464036E+01  0.12998160874E+02  0.17770000000E+01 0. -1.
</event>
<event>
 6    1  0.2279257E-006  0.3541040E+03  0.7546771E-02  0.9802663E-01
        -11   -1    0    0    0    0  0.00000000000E+00  0.00000000000E+00  0.50000000000E+03  0.50000000000E+03  0.00000000000E+00 0.  1.
         11   -1    0    0    0    0 -0.00000000000E+00 -0.00000000000E+00 -0.50000000000E+03  0.50000000000E+03  0.00000000000E+00 0. -1.
        -11    1    1    2    0    0  0.11594348593E+03  0.13572916577E+03  0.25248430108E+03  0.30921452208E+03  0.00000000000E+00 0.  1.
         11    1    1    2    0    0 -0.11057549369E+03 -0.32303009671E+02 -0.40703439365E+03  0.42302177468E+03  0.00000000000E+00 0. -1.
        -15    1    1    2    0    0  0.75761351931E+02 -0.10581749938E+03  0.60523642437E+02  0.14353882626E+03  0.17770000000E+01 0.  1.
         15    1    1    2    0    0 -0.81129344171E+02  0.23913432751E+01  0.94026450130E+02  0.12422487698E+03  0.17770000000E+01 0. -1.
</event>
<event>
 6    1  0.2279257E-006  0.5202843E+03  0.7546771E-02  0.9355532E-01
        -11   -1    0    0    0    0  0.00000000000E+00  0.00000000000E+00  0.50000000000E+03  0.50000000000E+03  0.00000000000E+00 0.  1.
         11   -1    0    0    0    0 -0.00000000000E+00 -0.00000000000E+00 -0.50000000000E+03  0.50000000000E+03  0.00000000000E+00 0. -1.
        -11    1    1    2    0    0  0.20436128602E+02 -0.37896595328E+02  0.13221694229E+03  0.13905073577E+03  0.00000000000E+00 0.  1.
         11    1    1    2    0    0  0.26177949794E+02  0.43265259823E+02 -0.47704299906E+03  0.47971573949E+03  0.00000000000E+00 0. -1.
        -15    1    1    2    0    0 -0.40514889918E+02  0.10747104633E+02  0.35738381713E+03  0.35983788994E+03  0.17770000000E+01 0.  1.
         15    1    1    2    0    0 -0.60991884769E+01 -0.16115769127E+02 -0.12557760350E+02  0.21395634804E+02  0.17770000000E+01 0. -1.
</event>
<event>
 7    1  0.2279257E-006  0.5299049E+03  0.7546771E-02  0.9335274E-01
        -11   -1    0    0    0    0  0.00000000000E+00  0.00000000000E+00  0.50000000000E+03  0.50000000000E+03  0.00000000000E+00 0.  1.
         11   -1    0    0    0    0 -0.00000000000E+00 -0.00000000000E+00 -0.50000000000E+03  0.50000000000E+03  0.00000000000E+00 0. -1.
         23    2    1    2    0    0 -0.42538045883E+02 -0.40587411264E+02  0.37244636473E+03  0.38783399646E+03  0.90785962078E+02 0.  0.
        -11    1    1    2    0    0 -0.10948844827E+03  0.54668888149E+02  0.72164720776E+02  0.14207094904E+03  0.00000000000E+00 0.  1.
         11    1    1    2    0    0  0.15202649415E+03 -0.14081476886E+02 -0.44461108550E+03  0.47009505450E+03  0.00000000000E+00 0. -1.
        -15    1    3    3    0    0 -0.34465617881E+02  0.20601010234E+01  0.30907487672E+03  0.31100250799E+03  0.17770000000E+01 0.  1.
         15    1    3    3    0    0 -0.80724280016E+01 -0.42647512287E+02  0.63371488011E+02  0.76831488466E+02  0.17770000000E+01 0. -1.
</event>
<event>
 7    1  0.2279257E-006  0.5306827E+03  0.7546771E-02  0.9333656E-01
        -11   -1    0    0    0    0  0.00000000000E+00  0.00000000000E+00  0.50000000000E+03  0.50000000000E+03  0.00000000000E+00 0.  1.
         11   -1    0    0    0    0 -0.00000000000E+00 -0.00000000000E+00 -0.50000000000E+03  0.50000000000E+03  0.00000000000E+00 0.  1.
         23    2    1    2    0    0 -0.48595653234E+02  0.10879719509E+03 -0.15188710975E+03  0.21264329304E+03  0.89157774719E+02 0.  0.
        -11    1    1    2    0    0 -0.30704191516E+02 -0.91072002038E+02  0.45937114476E+03  0.46931727602E+03  0.00000000000E+00 0.  1.
         11    1    1    2    0    0  0.79299844750E+02 -0.17725193049E+02 -0.30748403501E+03  0.31803943094E+03  0.00000000000E+00 0.  1.
        -15    1    3    3    0    0 -0.65943848807E+02  0.10682791422E+03 -0.10886458501E+03  0.16617896994E+03  0.17770000000E+01 0.  1.
         15    1    3    3    0    0  0.17348195573E+02  0.19692808658E+01 -0.43022524735E+02  0.46464323091E+02  0.17770000000E+01 0. -1.
</event>
<event>
 7    1  0.2279257E-006  0.4625954E+03  0.7546771E-02  0.9487629E-01
        -11   -1    0    0    0    0  0.00000000000E+00  0.00000000000E+00  0.50000000000E+03  0.50000000000E+03  0.00000000000E+00 0.  1.
         11   -1    0    0    0    0 -0.00000000000E+00 -0.00000000000E+00 -0.50000000000E+03  0.50000000000E+03  0.00000000000E+00 0.  1.
         23    2    1    2    0    0  0.73337596322E+01  0.10335145012E+03  0.43931040736E+03  0.46025838027E+03  0.90049077316E+02 0.  0.
        -11    1    1    2    0    0 -0.75849826309E+02 -0.24578135199E+02  0.82569495903E+01  0.80158955192E+02  0.00000000000E+00 0.  1.
         11    1    1    2    0    0  0.68516066677E+02 -0.78773314917E+02 -0.44756735695E+03  0.45958266454E+03  0.00000000000E+00 0.  1.
        -15    1    3    3    0    0  0.42064282299E+02  0.81022571797E+02  0.35217340630E+03  0.36381771098E+03  0.17770000000E+01 0.  1.
         15    1    3    3    0    0 -0.34730522667E+02  0.22328878319E+02  0.87137001056E+02  0.96440669294E+02  0.17770000000E+01 0. -1.
</event>
<event>
 7    1  0.2279257E-006  0.5400261E+03  0.7546771E-02  0.9314449E-01
        -11   -1    0    0    0    0  0.00000000000E+00  0.00000000000E+00  0.50000000000E+03  0.50000000000E+03  0.00000000000E+00 0.  1.
         11   -1    0    0    0    0 -0.00000000000E+00 -0.00000000000E+00 -0.50000000000E+03  0.50000000000E+03  0.00000000000E+00 0. -1.
         23    2    1    2    0    0 -0.79626063526E+02 -0.26609367394E+02  0.16375162446E+03  0.20607308461E+03  0.92753184636E+02 0.  0.
        -11    1    1    2    0    0  0.19294270208E+02  0.22311092862E+03  0.24773742667E+03  0.33395297260E+03  0.00000000000E+00 0.  1.
         11    1    1    2    0    0  0.60331793318E+02 -0.19650156123E+03 -0.41148905113E+03  0.45997394280E+03  0.00000000000E+00 0. -1.
        -15    1    3    3    0    0 -0.63957822562E+02  0.12065648673E+02  0.14754532034E+03  0.16127294326E+03  0.17770000000E+01 0.  1.
         15    1    3    3    0    0 -0.15668240963E+02 -0.38675016067E+02  0.16206304127E+02  0.44800141352E+02  0.17770000000E+01 0. -1.
</event>
<event>
 7    1  0.2279257E-006  0.4350705E+03  0.7546771E-02  0.9558102E-01
        -11   -1    0    0    0    0  0.00000000000E+00  0.00000000000E+00  0.50000000000E+03  0.50000000000E+03  0.00000000000E+00 0.  1.
         11   -1    0    0    0    0 -0.00000000000E+00 -0.00000000000E+00 -0.50000000000E+03  0.50000000000E+03  0.00000000000E+00 0. -1.
         23    2    1    2    0    0  0.66061836057E+02 -0.55012716239E+02 -0.14672986468E+02  0.12549951560E+03  0.90245591318E+02 0.  0.
        -11    1    1    2    0    0 -0.13381579502E+03 -0.57233732079E+02  0.42210540418E+03  0.44649226121E+03  0.00000000000E+00 0.  1.
         11    1    1    2    0    0  0.67753958963E+02  0.11224644832E+03 -0.40743241771E+03  0.42800822319E+03  0.00000000000E+00 0. -1.
        -15    1    3    3    0    0  0.71909282025E+02 -0.97905980350E+01 -0.28237448440E+02  0.77892951379E+02  0.17770000000E+01 0.  1.
         15    1    3    3    0    0 -0.58474459676E+01 -0.45222118204E+02  0.13564461971E+02  0.47606564220E+02  0.17770000000E+01 0. -1.
</event>
<event>
 7    1  0.2279257E-006  0.3466979E+03  0.7546771E-02  0.9828490E-01
        -11   -1    0    0    0    0  0.00000000000E+00  0.00000000000E+00  0.50000000000E+03  0.50000000000E+03  0.00000000000E+00 0.  1.
         11   -1    0    0    0    0 -0.00000000000E+00 -0.00000000000E+00 -0.50000000000E+03  0.50000000000E+03  0.00000000000E+00 0. -1.
         23    2    1    2    0    0 -0.12590482559E+03  0.17463699678E+03  0.21734715538E+03  0.31978472758E+03  0.93125615668E+02 0.  0.
        -11    1    1    2    0    0  0.67636195787E+02 -0.17663632432E+03  0.19036590034E+03  0.26835465724E+03  0.00000000000E+00 0.  1.
         11    1    1    2    0    0  0.58268629800E+02  0.19993275420E+01 -0.40771305572E+03  0.41186061518E+03  0.00000000000E+00 0. -1.
        -15    1    3    3    0    0 -0.13636795490E+03  0.16011088960E+03  0.21640285079E+03  0.30176989189E+03  0.17770000000E+01 0.  1.
         15    1    3    3    0    0  0.10463129313E+02  0.14526107178E+02  0.94430458558E+00  0.18014835690E+02  0.17770000000E+01 0. -1.
</event>
<event>
 7    1  0.2279257E-006  0.4156119E+03  0.7546771E-02  0.9611365E-01
        -11   -1    0    0    0    0  0.00000000000E+00  0.00000000000E+00  0.50000000000E+03  0.50000000000E+03  0.00000000000E+00 0.  1.
         11   -1    0    0    0    0 -0.00000000000E+00 -0.00000000000E+00 -0.50000000000E+03  0.50000000000E+03  0.00000000000E+00 0. -1.
         23    2    1    2    0    0  0.12150507315E+03 -0.43703849480E+02 -0.13321349950E+02  0.15870109655E+03  0.91296606840E+02 0.  0.
        -11    1    1    2    0    0 -0.98841243544E+02  0.13188945693E+03  0.40601250744E+03  0.43819011453E+03  0.00000000000E+00 0.  1.
         11    1    1    2    0    0 -0.22663829604E+02 -0.88185607453E+02 -0.39269115749E+03  0.40310878892E+03  0.00000000000E+00 0. -1.
        -15    1    3    3    0    0  0.25684017365E+02 -0.54981324208E+02 -0.13539769543E+02  0.62202072698E+02  0.17770000000E+01 0.  1.
         15    1    3    3    0    0  0.95821055783E+02  0.11277474728E+02  0.21841959234E+00  0.96499023849E+02  0.17770000000E+01 0. -1.
</event>
<event>
 7    1  0.2279257E-006  0.3921567E+03  0.7546771E-02  0.9679864E-01
        -11   -1    0    0    0    0  0.00000000000E+00  0.00000000000E+00  0.50000000000E+03  0.50000000000E+03  0.00000000000E+00 0. -1.
         11   -1    0    0    0    0 -0.00000000000E+00 -0.00000000000E+00 -0.50000000000E+03  0.50000000000E+03  0.00000000000E+00 0.  1.
         23    2    1    2    0    0 -0.62504494413E+02  0.15174126332E+03 -0.61651756060E+02  0.19633306605E+03  0.88394066450E+02 0.  0.
        -11    1    1    2    0    0  0.16009938404E+03 -0.12176555730E+03  0.40136388465E+03  0.44894502070E+03  0.00000000000E+00 0. -1.
         11    1    1    2    0    0 -0.97594889624E+02 -0.29975706022E+02 -0.33971212859E+03  0.35472191325E+03  0.00000000000E+00 0.  1.
        -15    1    3    3    0    0 -0.13235771277E+02  0.53708064939E+02 -0.66472227922E+02  0.86495414299E+02  0.17770000000E+01 0.  1.
         15    1    3    3    0    0 -0.49268723137E+02  0.98033198379E+02  0.48204718622E+01  0.10983765175E+03  0.17770000000E+01 0. -1.
</event>
<event>
 7    1  0.2279257E-006  0.5216894E+03  0.7546771E-02  0.9352545E-01
        -11   -1    0    0    0    0  0.00000000000E+00  0.00000000000E+00  0.50000000000E+03  0.50000000000E+03  0.00000000000E+00 0. -1.
         11   -1    0    0    0    0 -0.00000000000E+00 -0.00000000000E+00 -0.50000000000E+03  0.50000000000E+03  0.00000000000E+00 0.  1.
         23    2    1    2    0    0 -0.48861135695E+02 -0.37130249592E+02  0.30956466896E+03  0.33244459760E+03  0.10451344500E+03 0.  0.
        -11    1    1    2    0    0  0.92358202883E+02 -0.37268789399E+02  0.16091791834E+03  0.18924475355E+03  0.00000000000E+00 0. -1.
         11    1    1    2    0    0 -0.43497067188E+02  0.74399038992E+02 -0.47048258730E+03  0.47831064886E+03  0.00000000000E+00 0.  1.
        -15    1    3    3    0    0  0.67267626827E+01 -0.57098025672E+02  0.19814033500E+03  0.20632058539E+03  0.17770000000E+01 0. -1.
         15    1    3    3    0    0 -0.55587898378E+02  0.19967776080E+02  0.11142433396E+03  0.12612401221E+03  0.17770000000E+01 0.  1.
</event>
<event>
 7    1  0.2279257E-006  0.5246176E+03  0.7546771E-02  0.9346350E-01
        -11   -1    0    0    0    0  0.00000000000E+00  0.00000000000E+00  0.50000000000E+03  0.50000000000E+03  0.00000000000E+00 0.  1.
         11   -1    0    0    0    0 -0.00000000000E+00 -0.00000000000E+00 -0.50000000000E+03  0.50000000000E+03  0.00000000000E+00 0. -1.
         23    2    1    2    0    0  0.34255524669E+02  0.20840161329E+03 -0.32997543591E+03  0.40277328534E+03  0.93476508741E+02 0.  0.
        -11    1    1    2    0    0 -0.13743171448E+03 -0.24375206501E+03  0.38429915605E+03  0.47538235841E+03  0.00000000000E+00 0.  1.
         11    1    1    2    0    0  0.10317618981E+03  0.35350451725E+02 -0.54323720142E+02  0.12184435625E+03  0.00000000000E+00 0. -1.
        -15    1    3    3    0    0  0.98828526437E+01 -0.49406126793E+01 -0.29947447038E+01  0.11584759595E+02  0.17770000000E+01 0.  1.
         15    1    3    3    0    0  0.24372672026E+02  0.21334222597E+03 -0.32698069121E+03  0.39118852575E+03  0.17770000000E+01 0. -1.
</event>
<event>
 7    1  0.2279257E-006  0.5250653E+03  0.7546771E-02  0.9345407E-01
        -11   -1    0    0    0    0  0.00000000000E+00  0.00000000000E+00  0.50000000000E+03  0.50000000000E+03  0.00000000000E+00 0. -1.
         11   -1    0    0    0    0 -0.00000000000E+00 -0.00000000000E+00 -0.50000000000E+03  0.50000000000E+03  0.00000000000E+00 0.  1.
         23    2    1    2    0    0 -0.27794582876E+02  0.53982534274E+02 -0.28174489815E+03  0.30174589374E+03  0.89351798582E+02 0.  0.
        -11    1    1    2    0    0 -0.19790160378E+02  0.53784836097E+02  0.47146424671E+03  0.47493472706E+03  0.00000000000E+00 0. -1.
         11    1    1    2    0    0  0.47584743253E+02 -0.10776737037E+03 -0.18971934856E+03  0.22331937920E+03  0.00000000000E+00 0.  1.
        -15    1    3    3    0    0 -0.53993806900E+02  0.39452716625E+02 -0.12134605701E+03  0.13856360025E+03  0.17770000000E+01 0.  1.
         15    1    3    3    0    0  0.26199224024E+02  0.14529817649E+02 -0.16039884115E+03  0.16318229350E+03  0.17770000000E+01 0. -1.
</event>
<event>
 7    1  0.2279257E-006  0.3463661E+03  0.7546771E-02  0.9829663E-01
        -11   -1    0    0    0    0  0.00000000000E+00  0.00000000000E+00  0.50000000000E+03  0.50000000000E+03  0.00000000000E+00 0.  1.
         11   -1    0    0    0    0 -0.00000000000E+00 -0.00000000000E+00 -0.50000000000E+03  0.50000000000E+03  0.00000000000E+00 0. -1.
         23    2    1    2    0    0  0.11918775154E+03 -0.11986676552E+03 -0.21021825699E+03  0.28517763729E+03  0.92524632635E+02 0.  0.
        -11    1    1    2    0    0 -0.16540157705E+03 -0.52657172331E+02  0.41096689297E+03  0.44612133619E+03  0.00000000000E+00 0.  1.
         11    1    1    2    0    0  0.46213825506E+02  0.17252393786E+03 -0.20074863598E+03  0.26870102651E+03  0.00000000000E+00 0. -1.
        -15    1    3    3    0    0  0.12153024955E+03 -0.12337238400E+03 -0.16329232219E+03  0.23802917238E+03  0.17770000000E+01 0. -1.
         15    1    3    3    0    0 -0.23424980043E+01  0.35056184726E+01 -0.46925934801E+02  0.47148464914E+02  0.17770000000E+01 0.  1.
</event>
<event>
 7    1  0.2279257E-006  0.4443606E+03  0.7546771E-02  0.9533710E-01
        -11   -1    0    0    0    0  0.00000000000E+00  0.00000000000E+00  0.50000000000E+03  0.50000000000E+03  0.00000000000E+00 0.  1.
         11   -1    0    0    0    0 -0.00000000000E+00 -0.00000000000E+00 -0.50000000000E+03  0.50000000000E+03  0.00000000000E+00 0. -1.
         23    2    1    2    0    0 -0.64282433886E+02  0.18647689006E+02  0.44171610721E+03  0.45556915245E+03  0.89163701604E+02 0.  0.
        -11    1    1    2    0    0  0.44013525429E+02 -0.10240253176E+03 -0.19058657010E+02  0.11307829738E+03  0.00000000000E+00 0.  1.
         11    1    1    2    0    0  0.20268908456E+02  0.83754842754E+02 -0.42265745020E+03  0.43135255017E+03  0.00000000000E+00 0. -1.
        -15    1    3    3    0    0 -0.19628727805E+02 -0.35911939620E+02  0.16198697631E+03  0.16708648235E+03  0.17770000000E+01 0. -1.
         15    1    3    3    0    0 -0.44653706081E+02  0.54559628625E+02  0.27972913090E+03  0.28848267009E+03  0.17770000000E+01 0.  1.
</event>
<event>
 7    1  0.2279257E-006  0.5421410E+03  0.7546771E-02  0.9310159E-01
        -11   -1    0    0    0    0  0.00000000000E+00  0.00000000000E+00  0.50000000000E+03  0.50000000000E+03  0.00000000000E+00 0. -1.
         11   -1    0    0    0    0 -0.00000000000E+00 -0.00000000000E+00 -0.50000000000E+03  0.50000000000E+03  0.00000000000E+00 0. -1.
         23    2    1    2    0    0 -0.10299197931E+03 -0.78920978219E+02  0.23814225426E+03  0.28673784541E+03  0.93118151416E+02 0.  0.
        -11    1    1    2    0    0  0.12000087659E+03  0.54571120441E+02  0.21875229129E+03  0.25540317640E+03  0.00000000000E+00 0. -1.
         11    1    1    2    0    0 -0.17008897282E+02  0.24349857778E+02 -0.45689454555E+03  0.45785897819E+03  0.00000000000E+00 0. -1.
        -15    1    3    3    0    0 -0.11541994483E+03 -0.69634064822E+02  0.23482958579E+03  0.27077436870E+03  0.17770000000E+01 0.  1.
         15    1    3    3    0    0  0.12427965524E+02 -0.92869133964E+01  0.33126684625E+01  0.15963476715E+02  0.17770000000E+01 0. -1.
</event>
<event>
 7    1  0.2279257E-006  0.3784016E+03  0.7546771E-02  0.9722462E-01
        -11   -1    0    0    0    0  0.00000000000E+00  0.00000000000E+00  0.50000000000E+03  0.50000000000E+03  0.00000000000E+00 0.  1.
         11   -1    0    0    0    0 -0.00000000000E+00 -0.00000000000E+00 -0.50000000000E+03  0.50000000000E+03  0.00000000000E+00 0. -1.
         23    2    1    2    0    0 -0.19178703947E+03  0.42898792303E+02 -0.24748786008E+02  0.21770462729E+03  0.90333977255E+02 0.  0.
        -11    1    1    2    0    0  0.25266949789E+03  0.38589015835E+02  0.35459889939E+03  0.43711710874E+03  0.00000000000E+00 0.  1.
         11    1    1    2    0    0 -0.60882458423E+02 -0.81487808138E+02 -0.32985011338E+03  0.34517826397E+03  0.00000000000E+00 0. -1.
        -15    1    3    3    0    0 -0.12482237477E+03  0.53518322205E+02 -0.50851181679E+02  0.14503046736E+03  0.17770000000E+01 0.  1.
         15    1    3    3    0    0 -0.66964664698E+02 -0.10619529902E+02  0.26102395671E+02  0.72674159934E+02  0.17770000000E+01 0. -1.
</event>
<event>
 7    1  0.2279257E-006  0.5201729E+03  0.7546771E-02  0.9355769E-01
        -11   -1    0    0    0    0  0.00000000000E+00  0.00000000000E+00  0.50000000000E+03  0.50000000000E+03  0.00000000000E+00 0. -1.
         11   -1    0    0    0    0 -0.00000000000E+00 -0.00000000000E+00 -0.50000000000E+03  0.50000000000E+03  0.00000000000E+00 0. -1.
         23    2    1    2    0    0 -0.41166676285E+02 -0.11427161640E+03 -0.20879684723E+03  0.25849558619E+03  0.92038834812E+02 0.  0.
        -11    1    1    2    0    0  0.87885115998E+01  0.10429975536E+03  0.46827172432E+03  0.47982714044E+03  0.00000000000E+00 0. -1.
         11    1    1    2    0    0  0.32378164686E+02  0.99718610438E+01 -0.25947487709E+03  0.26167727338E+03  0.00000000000E+00 0. -1.
        -15    1    3    3    0    0  0.17877599754E+02  0.55135191277E+01 -0.27808882575E+02  0.33563360159E+02  0.17770000000E+01 0. -1.
         15    1    3    3    0    0 -0.59044276039E+02 -0.11978513553E+03 -0.18098796465E+03  0.22493222603E+03  0.17770000000E+01 0.  1.
</event>
<event>
 7    1  0.5525677E-006  0.5085350E+03  0.7546771E-02  0.9380912E-01
        -11   -1    0    0    0    0  0.00000000000E+00  0.00000000000E+00  0.50000000000E+03  0.50000000000E+03  0.00000000000E+00 0. -1.
         11   -1    0    0    0    0 -0.00000000000E+00 -0.00000000000E+00 -0.50000000000E+03  0.50000000000E+03  0.00000000000E+00 0.  1.
         23    2    1    2    0    0  0.87253975960E+02  0.37773653525E+02 -0.32325011398E+03  0.35054720172E+03  0.96708837370E+02 0.  0.
        -11    1    1    2    0    0 -0.16301680552E+03 -0.66946629340E+02  0.45878266062E+03  0.49146501375E+03  0.00000000000E+00 0. -1.
         11    1    1    2    0    0  0.75762829556E+02  0.29172975815E+02 -0.13553254664E+03  0.15798778452E+03  0.00000000000E+00 0.  1.
        -15    1    3    3    0    0 -0.19089336199E+01  0.44398394146E+02 -0.13497430420E+03  0.14211291972E+03  0.17770000000E+01 0. -1.
         15    1    3    3    0    0  0.89162909580E+02 -0.66247406212E+01 -0.18827580978E+03  0.20843428200E+03  0.17770000000E+01 0.  1.
</event>
<event>
 7    1  0.2279257E-006  0.3968613E+03  0.7546771E-02  0.9665720E-01
        -11   -1    0    0    0    0  0.00000000000E+00  0.00000000000E+00  0.50000000000E+03  0.50000000000E+03  0.00000000000E+00 0.  1.
         11   -1    0    0    0    0 -0.00000000000E+00 -0.00000000000E+00 -0.50000000000E+03  0.50000000000E+03  0.00000000000E+00 0.  1.
         23    2    1    2    0    0 -0.78283848392E+02 -0.96352870554E+02  0.34095938715E+03  0.37422763362E+03  0.91546608299E+02 0.  0.
        -11    1    1    2    0    0 -0.25428711565E+02  0.17826130548E+03  0.70678455581E+02  0.19344031763E+03  0.00000000000E+00 0.  1.
         11    1    1    2    0    0  0.10371255996E+03 -0.81908434927E+02 -0.41163784273E+03  0.43233204875E+03  0.00000000000E+00 0.  1.
        -15    1    3    3    0    0 -0.65285830986E+02 -0.40192329136E+02  0.27999355383E+03  0.29030537536E+03  0.17770000000E+01 0.  1.
         15    1    3    3    0    0 -0.12998017406E+02 -0.56160541418E+02  0.60965833327E+02  0.83922258258E+02  0.17770000000E+01 0. -1.
</event>
<event>
 7    1  0.2279257E-006  0.5335065E+03  0.7546771E-02  0.9327808E-01
        -11   -1    0    0    0    0  0.00000000000E+00  0.00000000000E+00  0.50000000000E+03  0.50000000000E+03  0.00000000000E+00 0.  1.
         11   -1    0    0    0    0 -0.00000000000E+00 -0.00000000000E+00 -0.50000000000E+03  0.50000000000E+03  0.00000000000E+00 0. -1.
         23    2    1    2    0    0  0.61887937759E+02 -0.18826045089E+02  0.24953846730E+03  0.27266925422E+03  0.88851216758E+02 0.  0.
        -11    1    1    2    0    0 -0.15822549795E+03 -0.45124674871E+02  0.20239691445E+03  0.26083722024E+03  0.00000000000E+00 0.  1.
         11    1    1    2    0    0  0.96337560193E+02  0.63950719960E+02 -0.45193538175E+03  0.46649352554E+03  0.00000000000E+00 0. -1.
        -15    1    3    3    0    0  0.35124600626E+02 -0.54440025810E+02  0.13475575260E+03  0.14953168416E+03  0.17770000000E+01 0. -1.
         15    1    3    3    0    0  0.26763337133E+02  0.35613980721E+02  0.11478271470E+03  0.12313757006E+03  0.17770000000E+01 0.  1.
</event>
<event>
 7    1  0.2279257E-006  0.5294726E+03  0.7546771E-02  0.9336175E-01
        -11   -1    0    0    0    0  0.00000000000E+00  0.00000000000E+00  0.50000000000E+03  0.50000000000E+03  0.00000000000E+00 0. -1.
         11   -1    0    0    0    0 -0.00000000000E+00 -0.00000000000E+00 -0.50000000000E+03  0.50000000000E+03  0.00000000000E+00 0.  1.
         23    2    1    2    0    0  0.10848037907E+02  0.46399424072E+02  0.38764686814E+03  0.39815008499E+03  0.77348621933E+02 0.  0.
        -11    1    1    2    0    0  0.11100883942E+03 -0.23149757257E+02  0.66232394926E+02  0.13132251836E+03  0.00000000000E+00 0. -1.
         11    1    1    2    0    0 -0.12185687732E+03 -0.23249666815E+02 -0.45387926307E+03  0.47052739665E+03  0.00000000000E+00 0.  1.
        -15    1    3    3    0    0 -0.49568548233E+01  0.37896062246E+02  0.68235263429E+02  0.78229731226E+02  0.17770000000E+01 0.  1.
         15    1    3    3    0    0  0.15804892730E+02  0.85033618256E+01  0.31941160471E+03  0.31992035376E+03  0.17770000000E+01 0. -1.
</event>
<event>
 7    1  0.2279257E-006  0.3848606E+03  0.7546771E-02  0.9702222E-01
        -11   -1    0    0    0    0  0.00000000000E+00  0.00000000000E+00  0.50000000000E+03  0.50000000000E+03  0.00000000000E+00 0.  1.
         11   -1    0    0    0    0 -0.00000000000E+00 -0.00000000000E+00 -0.50000000000E+03  0.50000000000E+03  0.00000000000E+00 0. -1.
         23    2    1    2    0    0 -0.16158846611E+02  0.41332308636E+02 -0.18159531488E+03  0.20790339845E+03  0.90980748726E+02 0.  0.
        -11    1    1    2    0    0 -0.24248112807E+03 -0.28674565131E+03  0.21714233794E+03  0.43378676898E+03  0.00000000000E+00 0.  1.
         11    1    1    2    0    0  0.25863997469E+03  0.24541334267E+03 -0.35547023056E+02  0.35830983257E+03  0.00000000000E+00 0. -1.
        -15    1    3    3    0    0 -0.13806220306E+02  0.58614852025E+02 -0.59914365190E+02  0.84965884226E+02  0.17770000000E+01 0.  1.
         15    1    3    3    0    0 -0.23526263047E+01 -0.17282543390E+02 -0.12168094969E+03  0.12293751423E+03  0.17770000000E+01 0. -1.
</event>
<event>
 7    1  0.2279257E-006  0.4706749E+03  0.7546771E-02  0.9467929E-01
        -11   -1    0    0    0    0  0.00000000000E+00  0.00000000000E+00  0.50000000000E+03  0.50000000000E+03  0.00000000000E+00 0.  1.
         11   -1    0    0    0    0 -0.00000000000E+00 -0.00000000000E+00 -0.50000000000E+03  0.50000000000E+03  0.00000000000E+00 0. -1.
         23    2    1    2    0    0 -0.21672697588E+03  0.21279635071E+02  0.42858144790E+03  0.48910806699E+03  0.90117915929E+02 0.  0.
        -11    1    1    2    0    0  0.55427755429E+02 -0.31504920848E+02 -0.13108284130E+02  0.65089347995E+02  0.00000000000E+00 0.  1.
         11    1    1    2    0    0  0.16129922045E+03  0.10225285777E+02 -0.41547316377E+03  0.44580258501E+03  0.00000000000E+00 0. -1.
        -15    1    3    3    0    0 -0.13209251733E+03 -0.31365765052E+02  0.25737436339E+03  0.29099306694E+03  0.17770000000E+01 0.  1.
         15    1    3    3    0    0 -0.84634458550E+02  0.52645400123E+02  0.17120708452E+03  0.19811500005E+03  0.17770000000E+01 0. -1.
</event>
<event>
 7    1  0.2279257E-006  0.5140209E+03  0.7546771E-02  0.9368972E-01
        -11   -1    0    0    0    0  0.00000000000E+00  0.00000000000E+00  0.50000000000E+03  0.50000000000E+03  0.00000000000E+00 0. -1.
         11   -1    0    0    0    0 -0.00000000000E+00 -0.00000000000E+00 -0.50000000000E+03  0.50000000000E+03  0.00000000000E+00 0.  1.
         23    2    1    2    0    0 -0.21125631861E+02  0.14812376117E+02 -0.13171823738E+03  0.16076038584E+03  0.88478860692E+02 0.  0.
        -11    1    1    2    0    0  0.22532580018E+02 -0.24276809426E+02  0.48484909800E+03  0.48597914407E+03  0.00000000000E+00 0. -1.
         11    1    1    2    0    0 -0.14069481573E+01  0.94644333096E+01 -0.35313086063E+03  0.35326047009E+03  0.00000000000E+00 0.  1.
        -15    1    3    3    0    0  0.18608302037E+02 -0.27124907930E+02 -0.61921387444E+02  0.70138758806E+02  0.17770000000E+01 0. -1.
         15    1    3    3    0    0 -0.39733933898E+02  0.41937284047E+02 -0.69796849932E+02  0.90621627031E+02  0.17770000000E+01 0.  1.
</event>
<event>
 7    1  0.2279257E-006  0.3888218E+03  0.7546771E-02  0.9690018E-01
        -11   -1    0    0    0    0  0.00000000000E+00  0.00000000000E+00  0.50000000000E+03  0.50000000000E+03  0.00000000000E+00 0.  1.
         11   -1    0    0    0    0 -0.00000000000E+00 -0.00000000000E+00 -0.50000000000E+03  0.50000000000E+03  0.00000000000E+00 0. -1.
         23    2    1    2    0    0  0.49642224748E+02 -0.97479857613E+02  0.30503324516E+03  0.33870674826E+03  0.98540892762E+02 0.  0.
        -11    1    1    2    0    0 -0.15860873877E+03  0.29748606074E+02  0.13032206346E+03  0.20742601525E+03  0.00000000000E+00 0.  1.
         11    1    1    2    0    0  0.10896651403E+03  0.67731251539E+02 -0.43535530862E+03  0.45386723649E+03  0.00000000000E+00 0. -1.
        -15    1    3    3    0    0 -0.76383305960E+01 -0.34714046626E+02  0.19061679780E+02  0.40372199500E+02  0.17770000000E+01 0. -1.
         15    1    3    3    0    0  0.57280555344E+02 -0.62765810987E+02  0.28597156538E+03  0.29833454876E+03  0.17770000000E+01 0.  1.
</event>
<event>
 7    1  0.2279257E-006  0.3504210E+03  0.7546771E-02  0.9815421E-01
        -11   -1    0    0    0    0  0.00000000000E+00  0.00000000000E+00  0.50000000000E+03  0.50000000000E+03  0.00000000000E+00 0.  1.
         11   -1    0    0    0    0 -0.00000000000E+00 -0.00000000000E+00 -0.50000000000E+03  0.50000000000E+03  0.00000000000E+00 0. -1.
         23    2    1    2    0    0  0.17656126729E+03  0.58570976759E+02 -0.15531208687E+03  0.25844371568E+03  0.89815752611E+02 0.  0.
        -11    1    1    2    0    0 -0.11871761970E+03 -0.27397835047E+03  0.33962234722E+03  0.45221825315E+03  0.00000000000E+00 0.  1.
         11    1    1    2    0    0 -0.57843647592E+02  0.21540737371E+03 -0.18431026035E+03  0.28933803117E+03  0.00000000000E+00 0. -1.
        -15    1    3    3    0    0 -0.12726489595E+01  0.20165415819E+02 -0.17498894536E+01  0.20358867174E+02  0.17770000000E+01 0. -1.
         15    1    3    3    0    0  0.17783391625E+03  0.38405560940E+02 -0.15356219742E+03  0.23808484850E+03  0.17770000000E+01 0.  1.
</event>
<event>
 7    1  0.2279257E-006  0.4311079E+03  0.7546771E-02  0.9568705E-01
        -11   -1    0    0    0    0  0.00000000000E+00  0.00000000000E+00  0.50000000000E+03  0.50000000000E+03  0.00000000000E+00 0.  1.
         11   -1    0    0    0    0 -0.00000000000E+00 -0.00000000000E+00 -0.50000000000E+03  0.50000000000E+03  0.00000000000E+00 0. -1.
         23    2    1    2    0    0  0.86899706023E+02  0.20107373562E+01  0.37641824901E+02  0.13259667404E+03  0.92786685542E+02 0.  0.
        -11    1    1    2    0    0 -0.10338662389E+03 -0.16628811932E+03  0.37495275206E+03  0.42300129893E+03  0.00000000000E+00 0.  1.
         11    1    1    2    0    0  0.16486917864E+02  0.16427738197E+03 -0.41259457696E+03  0.44440202702E+03  0.00000000000E+00 0. -1.
        -15    1    3    3    0    0  0.69958120011E+02 -0.14023774366E+02  0.65045591947E+02  0.96565478115E+02  0.17770000000E+01 0. -1.
         15    1    3    3    0    0  0.16941586012E+02  0.16034511722E+02 -0.27403767045E+02  0.36031195928E+02  0.17770000000E+01 0.  1.
</event>
<event>
 7    1  0.2279257E-006  0.4097638E+03  0.7546771E-02  0.9627984E-01
        -11   -1    0    0    0    0  0.00000000000E+00  0.00000000000E+00  0.50000000000E+03  0.50000000000E+03  0.00000000000E+00 0. -1.
         11   -1    0    0    0    0 -0.00000000000E+00 -0.00000000000E+00 -0.50000000000E+03  0.50000000000E+03  0.00000000000E+00 0.  1.
         23    2    1    2    0    0 -0.12297349095E+00  0.15831501053E+02  0.37383579791E+03  0.38490414865E+03  0.90262662850E+02 0.  0.
        -11    1    1    2    0    0 -0.16852428733E+03 -0.78683446226E+01  0.35416421967E+02  0.17238523490E+03  0.00000000000E+00 0. -1.
         11    1    1    2    0    0  0.16864726082E+03 -0.79631564304E+01 -0.40925221988E+03  0.44271061645E+03  0.00000000000E+00 0.  1.
        -15    1    3    3    0    0 -0.11967755015E+02 -0.36178948878E+02  0.14618121667E+03  0.15107696495E+03  0.17770000000E+01 0.  1.
         15    1    3    3    0    0  0.11844781524E+02  0.52010449931E+02  0.22765458124E+03  0.23382718370E+03  0.17770000000E+01 0. -1.
</event>
<event>
 7    1  0.2279257E-006  0.5227539E+03  0.7546771E-02  0.9350288E-01
        -11   -1    0    0    0    0  0.00000000000E+00  0.00000000000E+00  0.50000000000E+03  0.50000000000E+03  0.00000000000E+00 0. -1.
         11   -1    0    0    0    0 -0.00000000000E+00 -0.00000000000E+00 -0.50000000000E+03  0.50000000000E+03  0.00000000000E+00 0.  1.
         23    2    1    2    0    0 -0.35905843782E+02 -0.22375299915E+00  0.31393018323E+03  0.32807366306E+03  0.88266011406E+02 0.  0.
        -11    1    1    2    0    0 -0.37652629004E+02 -0.13102489187E+03  0.13897901899E+03  0.19468027759E+03  0.00000000000E+00 0. -1.
         11    1    1    2    0    0  0.73558472785E+02  0.13124864487E+03 -0.45290920223E+03  0.47724605935E+03  0.00000000000E+00 0.  1.
        -15    1    3    3    0    0 -0.17863270761E+02 -0.43572063241E+02  0.18290209394E+03  0.18887550089E+03  0.17770000000E+01 0. -1.
         15    1    3    3    0    0 -0.18042573020E+02  0.43348310242E+02  0.13102808929E+03  0.13919816218E+03  0.17770000000E+01 0.  1.
</event>
<event>
 7    1  0.2279257E-006  0.3950272E+03  0.7546771E-02  0.9671209E-01
        -11   -1    0    0    0    0  0.00000000000E+00  0.00000000000E+00  0.50000000000E+03  0.50000000000E+03  0.00000000000E+00 0.  1.
         11   -1    0    0    0    0 -0.00000000000E+00 -0.00000000000E+00 -0.50000000000E+03  0.50000000000E+03  0.00000000000E+00 0. -1.
         23    2    1    2    0    0  0.11650992148E+02  0.57342634367E+02  0.15658822236E+03  0.19245446779E+03  0.95367329090E+02 0.  0.
        -11    1    1    2    0    0  0.17514511401E+03  0.30179667926E+03  0.50942139441E+02  0.35263599951E+03  0.00000000000E+00 0.  1.
         11    1    1    2    0    0 -0.18679610616E+03 -0.35913931363E+03 -0.20753036180E+03  0.45490953270E+03  0.00000000000E+00 0. -1.
        -15    1    3    3    0    0 -0.50721322866E+01  0.74608373111E+01 -0.12411352229E+02  0.15446359198E+02  0.17770000000E+01 0.  1.
         15    1    3    3    0    0  0.16723124435E+02  0.49881797056E+02  0.16899957459E+03  0.17700810859E+03  0.17770000000E+01 0. -1.
</event>
<event>
 7    1  0.2279257E-006  0.5170641E+03  0.7546771E-02  0.9362417E-01
        -11   -1    0    0    0    0  0.00000000000E+00  0.00000000000E+00  0.50000000000E+03  0.50000000000E+03  0.00000000000E+00 0.  1.
         11   -1    0    0    0    0 -0.00000000000E+00 -0.00000000000E+00 -0.50000000000E+03  0.50000000000E+03  0.00000000000E+00 0.  1.
         23    2    1    2    0    0  0.68637672030E+02  0.22121764498E+03 -0.25766043376E+03  0.35783968302E+03  0.89509570156E+02 0.  0.
        -11    1    1    2    0    0 -0.18059577413E+03 -0.26199553328E+03  0.36327752981E+03  0.48293587231E+03  0.00000000000E+00 0.  1.
         11    1    1    2    0    0  0.11195810210E+03  0.40777888304E+02 -0.10561709605E+03  0.15922444467E+03  0.00000000000E+00 0.  1.
        -15    1    3    3    0    0  0.56048986400E+02  0.86791459204E+02 -0.16279453504E+03  0.19281977242E+03  0.17770000000E+01 0.  1.
         15    1    3    3    0    0  0.12588685630E+02  0.13442618577E+03 -0.94865898723E+02  0.16501991061E+03  0.17770000000E+01 0. -1.
</event>
<event>
 7    1  0.2279257E-006  0.5113844E+03  0.7546771E-02  0.9374690E-01
        -11   -1    0    0    0    0  0.00000000000E+00  0.00000000000E+00  0.50000000000E+03  0.50000000000E+03  0.00000000000E+00 0.  1.
         11   -1    0    0    0    0 -0.00000000000E+00 -0.00000000000E+00 -0.50000000000E+03  0.50000000000E+03  0.00000000000E+00 0.  1.
         23    2    1    2    0    0 -0.64880830996E+02  0.38621215566E+02  0.28557109941E+03  0.31054556027E+03  0.95846604858E+02 0.  0.
        -11    1    1    2    0    0 -0.17268878673E+02 -0.39845866905E+02  0.19608759569E+03  0.20083887189E+03  0.00000000000E+00 0.  1.
         11    1    1    2    0    0  0.82149709669E+02  0.12246513399E+01 -0.48165869510E+03  0.48861556784E+03  0.00000000000E+00 0.  1.
        -15    1    3    3    0    0 -0.15020100180E+02  0.41723939620E+02  0.23603140350E+03  0.24016759089E+03  0.17770000000E+01 0. -1.
         15    1    3    3    0    0 -0.49860730816E+02 -0.31027240548E+01  0.49539695907E+02  0.70377969377E+02  0.17770000000E+01 0.  1.
</event>
<event>
 7    1  0.2279257E-006  0.4016578E+03  0.7546771E-02  0.9651515E-01
        -11   -1    0    0    0    0  0.00000000000E+00  0.00000000000E+00  0.50000000000E+03  0.50000000000E+03  0.00000000000E+00 0. -1.
         11   -1    0    0    0    0 -0.00000000000E+00 -0.00000000000E+00 -0.50000000000E+03  0.50000000000E+03  0.00000000000E+00 0.  1.
         23    2    1    2    0    0  0.12310813861E+03 -0.14912590291E+03  0.34961730158E+03  0.40942048966E+03  0.89435625330E+02 0.  0.
        -11    1    1    2    0    0  0.92185414343E+02  0.16071373931E+03 -0.65550710553E+01  0.18539154667E+03  0.00000000000E+00 0. -1.
         11    1    1    2    0    0 -0.21529355295E+03 -0.11587836392E+02 -0.34306223052E+03  0.40518796367E+03  0.00000000000E+00 0.  1.
        -15    1    3    3    0    0  0.28148487477E+02 -0.31962438025E+02  0.16809628792E+03  0.17341699609E+03  0.17770000000E+01 0.  1.
         15    1    3    3    0    0  0.94959651132E+02 -0.11716346489E+03  0.18152101366E+03  0.23600349357E+03  0.17770000000E+01 0. -1.
</event>
<event>
 7    1  0.2279257E-006  0.5307521E+03  0.7546771E-02  0.9333512E-01
        -11   -1    0    0    0    0  0.00000000000E+00  0.00000000000E+00  0.50000000000E+03  0.50000000000E+03  0.00000000000E+00 0.  1.
         11   -1    0    0    0    0 -0.00000000000E+00 -0.00000000000E+00 -0.50000000000E+03  0.50000000000E+03  0.00000000000E+00 0. -1.
         23    2    1    2    0    0 -0.38354212320E+01  0.45793806937E+02  0.25083286445E+03  0.27059418884E+03  0.90511358056E+02 0.  0.
        -11    1    1    2    0    0 -0.18514049558E+03 -0.38720459960E+02  0.17862217213E+03  0.26015794722E+03  0.00000000000E+00 0.  1.
         11    1    1    2    0    0  0.18897591681E+03 -0.70733469770E+01 -0.42945503658E+03  0.46924786394E+03  0.00000000000E+00 0. -1.
        -15    1    3    3    0    0 -0.40877453982E+02  0.18873452032E+02  0.18482727380E+03  0.19024051174E+03  0.17770000000E+01 0.  1.
         15    1    3    3    0    0  0.37042032750E+02  0.26920354905E+02  0.66005590642E+02  0.80353677100E+02  0.17770000000E+01 0. -1.
</event>
<event>
 7    1  0.2279257E-006  0.5174401E+03  0.7546771E-02  0.9361610E-01
        -11   -1    0    0    0    0  0.00000000000E+00  0.00000000000E+00  0.50000000000E+03  0.50000000000E+03  0.00000000000E+00 0.  1.
         11   -1    0    0    0    0 -0.00000000000E+00 -0.00000000000E+00 -0.50000000000E+03  0.50000000000E+03  0.00000000000E+00 0.  1.
         23    2    1    2    0    0  0.15781187409E+02 -0.78289690178E+01  0.41162705685E+03  0.42194531029E+03  0.91053129069E+02 0.  0.
        -11    1    1    2    0    0 -0.36039330485E+02  0.56480918550E+02  0.68046462024E+02  0.95494756379E+02  0.00000000000E+00 0.  1.
         11    1    1    2    0    0  0.20258143076E+02 -0.48651949532E+02 -0.47967351887E+03  0.48255993333E+03  0.00000000000E+00 0.  1.
        -15    1    3    3    0    0  0.77529066471E+01 -0.40130915438E+02  0.93271179964E+02  0.10184924485E+03  0.17770000000E+01 0. -1.
         15    1    3    3    0    0  0.80282807617E+01  0.32301946420E+02  0.31835587688E+03  0.32009606544E+03  0.17770000000E+01 0.  1.
</event>
<event>
 7    1  0.2279257E-006  0.5123105E+03  0.7546771E-02  0.9372678E-01
        -11   -1    0    0    0    0  0.00000000000E+00  0.00000000000E+00  0.50000000000E+03  0.50000000000E+03  0.00000000000E+00 0.  1.
         11   -1    0    0    0    0 -0.00000000000E+00 -0.00000000000E+00 -0.50000000000E+03  0.50000000000E+03  0.00000000000E+00 0. -1.
         23    2    1    2    0    0  0.16151237661E+03  0.17739975474E+02  0.31253232467E+03  0.36587378596E+03  0.98925319107E+02 0.  0.
        -11    1    1    2    0    0  0.11245350353E+03  0.33284324956E+02  0.87692997034E+02  0.14643667052E+03  0.00000000000E+00 0.  1.
         11    1    1    2    0    0 -0.27396588014E+03 -0.51024300430E+02 -0.40022532171E+03  0.48768954351E+03  0.00000000000E+00 0. -1.
        -15    1    3    3    0    0  0.15379373185E+03 -0.10403243447E+02  0.21853740643E+03  0.26743689942E+03  0.17770000000E+01 0.  1.
         15    1    3    3    0    0  0.77186447561E+01  0.28143218921E+02  0.93994918243E+02  0.98436886545E+02  0.17770000000E+01 0. -1.
</event>
<event>
 7    1  0.2279257E-006  0.4598958E+03  0.7546771E-02  0.9494307E-01
        -11   -1    0    0    0    0  0.00000000000E+00  0.00000000000E+00  0.50000000000E+03  0.50000000000E+03  0.00000000000E+00 0.  1.
         11   -1    0    0    0    0 -0.00000000000E+00 -0.00000000000E+00 -0.50000000000E+03  0.50000000000E+03  0.00000000000E+00 0. -1.
         23    2    1    2    0    0  0.54203249217E+01 -0.21297675568E+02  0.41256768367E+03  0.42279687466E+03  0.89789379730E+02 0.  0.
        -11    1    1    2    0    0  0.35612413337E+02 -0.32562797472E+01  0.77213743227E+02  0.85092946151E+02  0.00000000000E+00 0.  1.
         11    1    1    2    0    0 -0.41032738259E+02  0.24553955315E+02 -0.48978142689E+03  0.49211017919E+03  0.00000000000E+00 0. -1.
        -15    1    3    3    0    0  0.28383509432E+02 -0.47624622914E+02  0.29357098266E+03  0.29876547308E+03  0.17770000000E+01 0.  1.
         15    1    3    3    0    0 -0.22963184510E+02  0.26326947346E+02  0.11899670101E+03  0.12403140158E+03  0.17770000000E+01 0. -1.
</event>
<event>
 7    1  0.2279257E-006  0.4052726E+03  0.7546771E-02  0.9640949E-01
        -11   -1    0    0    0    0  0.00000000000E+00  0.00000000000E+00  0.50000000000E+03  0.50000000000E+03  0.00000000000E+00 0. -1.
         11   -1    0    0    0    0 -0.00000000000E+00 -0.00000000000E+00 -0.50000000000E+03  0.50000000000E+03  0.00000000000E+00 0. -1.
         23    2    1    2    0    0  0.14151328797E+02 -0.22313556476E+02  0.42598870111E+03  0.43678571769E+03  0.92829062251E+02 0.  0.
        -11    1    1    2    0    0 -0.73852286811E+02  0.16698923240E+03 -0.33670902797E+03  0.38303072138E+03  0.00000000000E+00 0. -1.
         11    1    1    2    0    0  0.59700958014E+02 -0.14467567592E+03 -0.89279673139E+02  0.18018356093E+03  0.00000000000E+00 0. -1.
        -15    1    3    3    0    0 -0.24670840814E+02 -0.44824679889E+02  0.24682604828E+03  0.25207966628E+03  0.17770000000E+01 0. -1.
         15    1    3    3    0    0  0.38822169610E+02  0.22511123412E+02  0.17916265283E+03  0.18470605141E+03  0.17770000000E+01 0.  1.
</event>
<event>
 7    1  0.2279257E-006  0.5244690E+03  0.7546771E-02  0.9346664E-01
        -11   -1    0    0    0    0  0.00000000000E+00  0.00000000000E+00  0.50000000000E+03  0.50000000000E+03  0.00000000000E+00 0.  1.
         11   -1    0    0    0    0 -0.00000000000E+00 -0.00000000000E+00 -0.50000000000E+03  0.50000000000E+03  0.00000000000E+00 0. -1.
         23    2    1    2    0    0  0.69346110680E+02 -0.62024255702E+02  0.23588077046E+03  0.26978238417E+03  0.92124402708E+02 0.  0.
        -11    1    1    2    0    0 -0.93065640981E+02 -0.12878848009E+03  0.19904172333E+03  0.25468665800E+03  0.00000000000E+00 0.  1.
         11    1    1    2    0    0  0.23719530301E+02  0.19081273579E+03 -0.43492249379E+03  0.47553095784E+03  0.00000000000E+00 0. -1.
        -15    1    3    3    0    0  0.86070943483E+02 -0.70586513670E+02  0.21082958932E+03  0.23841756791E+03  0.17770000000E+01 0.  1.
         15    1    3    3    0    0 -0.16724832803E+02  0.85622579681E+01  0.25051181133E+02  0.31364816259E+02  0.17770000000E+01 0. -1.
</event>
<event>
 7    1  0.2279257E-006  0.4087945E+03  0.7546771E-02  0.9630767E-01
        -11   -1    0    0    0    0  0.00000000000E+00  0.00000000000E+00  0.50000000000E+03  0.50000000000E+03  0.00000000000E+00 0.  1.
         11   -1    0    0    0    0 -0.00000000000E+00 -0.00000000000E+00 -0.50000000000E+03  0.50000000000E+03  0.00000000000E+00 0. -1.
         23    2    1    2    0    0 -0.29945708493E+02 -0.32824168093E+01  0.42587709216E+03  0.43624681916E+03  0.89624047473E+02 0.  0.
        -11    1    1    2    0    0  0.12743672721E+03 -0.10019468936E+03 -0.62823638346E+02  0.17385598855E+03  0.00000000000E+00 0.  1.
         11    1    1    2    0    0 -0.97491018721E+02  0.10347710617E+03 -0.36305345381E+03  0.38989719229E+03  0.00000000000E+00 0. -1.
        -15    1    3    3    0    0  0.18464821168E+02 -0.25917825729E+02  0.77622238634E+02  0.83910982421E+02  0.17770000000E+01 0. -1.
         15    1    3    3    0    0 -0.48410529660E+02  0.22635408920E+02  0.34825485352E+03  0.35233583674E+03  0.17770000000E+01 0.  1.
</event>
<event>
 7    1  0.2279257E-006  0.4235833E+03  0.7546771E-02  0.9589176E-01
        -11   -1    0    0    0    0  0.00000000000E+00  0.00000000000E+00  0.50000000000E+03  0.50000000000E+03  0.00000000000E+00 0.  1.
         11   -1    0    0    0    0 -0.00000000000E+00 -0.00000000000E+00 -0.50000000000E+03  0.50000000000E+03  0.00000000000E+00 0. -1.
         23    2    1    2    0    0 -0.10052639828E+03  0.42101607219E+02 -0.14778655457E+01  0.14585037211E+03  0.96912563057E+02 0.  0.
        -11    1    1    2    0    0  0.12113886745E+03 -0.14524542640E+03  0.39974368037E+03  0.44222829974E+03  0.00000000000E+00 0.  1.
         11    1    1    2    0    0 -0.20612469170E+02  0.10314381918E+03 -0.39826581483E+03  0.41192132814E+03  0.00000000000E+00 0. -1.
        -15    1    3    3    0    0 -0.12475588531E+01  0.44803968380E+02  0.96955545780E+01  0.45892412154E+02  0.17770000000E+01 0.  1.
         15    1    3    3    0    0 -0.99278839424E+02 -0.27023611607E+01 -0.11173420124E+02  0.99957959961E+02  0.17770000000E+01 0. -1.
</event>
<event>
 6    1  0.2279257E-006  0.3325088E+03  0.7546771E-02  0.9879961E-01
        -11   -1    0    0    0    0  0.00000000000E+00  0.00000000000E+00  0.50000000000E+03  0.50000000000E+03  0.00000000000E+00 0. -1.
         11   -1    0    0    0    0 -0.00000000000E+00 -0.00000000000E+00 -0.50000000000E+03  0.50000000000E+03  0.00000000000E+00 0.  1.
        -11    1    1    2    0    0  0.23989597268E+03  0.13303013404E+03  0.13028372072E+03  0.30367901172E+03  0.00000000000E+00 0. -1.
         11    1    1    2    0    0  0.69126515655E+02  0.10071947217E+02 -0.28899505410E+03  0.29731811344E+03  0.00000000000E+00 0.  1.
        -15    1    1    2    0    0 -0.50472699391E+02 -0.82074329704E+02  0.69304120453E+02  0.11870091752E+03  0.17770000000E+01 0. -1.
         15    1    1    2    0    0 -0.25854978895E+03 -0.61027751553E+02  0.89407212924E+02  0.28030195732E+03  0.17770000000E+01 0.  1.
</event>
<event>
 7    1  0.2279257E-006  0.4185734E+03  0.7546771E-02  0.9603060E-01
        -11   -1    0    0    0    0  0.00000000000E+00  0.00000000000E+00  0.50000000000E+03  0.50000000000E+03  0.00000000000E+00 0.  1.
         11   -1    0    0    0    0 -0.00000000000E+00 -0.00000000000E+00 -0.50000000000E+03  0.50000000000E+03  0.00000000000E+00 0.  1.
         23    2    1    2    0    0 -0.68598940888E+01  0.11587734839E+03  0.39822189168E+02  0.15390597415E+03  0.92879621618E+02 0.  0.
        -11    1    1    2    0    0 -0.23862958832E+03 -0.92671262371E+02  0.32005789514E+03  0.40984033420E+03  0.00000000000E+00 0.  1.
         11    1    1    2    0    0  0.24548948241E+03 -0.23206086014E+02 -0.35988008431E+03  0.43625369166E+03  0.00000000000E+00 0.  1.
        -15    1    3    3    0    0 -0.32330276615E+02  0.10668562002E+03  0.53334772587E+02  0.12359135892E+03  0.17770000000E+01 0.  1.
         15    1    3    3    0    0  0.25470382526E+02  0.91917283665E+01 -0.13512583419E+02  0.30314615222E+02  0.17770000000E+01 0. -1.
</event>
<event>
 7    1  0.2279257E-006  0.4916649E+03  0.7546771E-02  0.9418656E-01
        -11   -1    0    0    0    0  0.00000000000E+00  0.00000000000E+00  0.50000000000E+03  0.50000000000E+03  0.00000000000E+00 0.  1.
         11   -1    0    0    0    0 -0.00000000000E+00 -0.00000000000E+00 -0.50000000000E+03  0.50000000000E+03  0.00000000000E+00 0. -1.
         23    2    1    2    0    0  0.44765628291E+02  0.47558780919E+02  0.47691599879E+03  0.48994603165E+03  0.91282226687E+02 0.  0.
        -11    1    1    2    0    0  0.21155466823E+02 -0.12894957902E+02  0.24868041509E+01  0.24900158849E+02  0.00000000000E+00 0.  1.
         11    1    1    2    0    0 -0.65921095114E+02 -0.34663823017E+02 -0.47940280294E+03  0.48515380950E+03  0.00000000000E+00 0. -1.
        -15    1    3    3    0    0  0.25928363334E+02  0.41453585319E+02  0.46323618545E+03  0.46581283902E+03  0.17770000000E+01 0.  1.
         15    1    3    3    0    0  0.18837264956E+02  0.61051956000E+01  0.13679813344E+02  0.24133192629E+02  0.17770000000E+01 0. -1.
</event>
<event>
 7    1  0.2279257E-006  0.5077042E+03  0.7546771E-02  0.9382734E-01
        -11   -1    0    0    0    0  0.00000000000E+00  0.00000000000E+00  0.50000000000E+03  0.50000000000E+03  0.00000000000E+00 0. -1.
         11   -1    0    0    0    0 -0.00000000000E+00 -0.00000000000E+00 -0.50000000000E+03  0.50000000000E+03  0.00000000000E+00 0.  1.
         23    2    1    2    0    0 -0.24675004304E+02 -0.15956656527E+03  0.45413239372E+03  0.49229576630E+03  0.10024243564E+03 0.  0.
        -11    1    1    2    0    0 -0.48631895911E+02  0.18008165154E+02 -0.45178412998E+02  0.68778225574E+02  0.00000000000E+00 0. -1.
         11    1    1    2    0    0  0.73306900215E+02  0.14155840012E+03 -0.40895398072E+03  0.43892600813E+03  0.00000000000E+00 0.  1.
        -15    1    3    3    0    0  0.12887835226E+02 -0.14173219297E+03  0.39599853145E+03  0.42079936485E+03  0.17770000000E+01 0. -1.
         15    1    3    3    0    0 -0.37562839531E+02 -0.17834372306E+02  0.58133862272E+02  0.71496401453E+02  0.17770000000E+01 0.  1.
</event>
<event>
 7    1  0.2279257E-006  0.4543146E+03  0.7546771E-02  0.9508270E-01
        -11   -1    0    0    0    0  0.00000000000E+00  0.00000000000E+00  0.50000000000E+03  0.50000000000E+03  0.00000000000E+00 0. -1.
         11   -1    0    0    0    0 -0.00000000000E+00 -0.00000000000E+00 -0.50000000000E+03  0.50000000000E+03  0.00000000000E+00 0. -1.
         23    2    1    2    0    0 -0.41077158723E+02 -0.27934992164E+02  0.43323667074E+03  0.44240822601E+03  0.74587725613E+02 0.  0.
        -11    1    1    2    0    0  0.33262130404E+02  0.81831727248E+02  0.28374713598E+02  0.92778905335E+02  0.00000000000E+00 0. -1.
         11    1    1    2    0    0  0.78150283196E+01 -0.53896735084E+02 -0.46161138434E+03  0.46481286866E+03  0.00000000000E+00 0. -1.
        -15    1    3    3    0    0 -0.25135581400E+02  0.22266653787E+02  0.11419911593E+03  0.11904703748E+03  0.17770000000E+01 0.  1.
         15    1    3    3    0    0 -0.15941577324E+02 -0.50201645951E+02  0.31903755481E+03  0.32336118853E+03  0.17770000000E+01 0. -1.
</event>
<event>
 7    1  0.2279257E-006  0.5267422E+03  0.7546771E-02  0.9341883E-01
        -11   -1    0    0    0    0  0.00000000000E+00  0.00000000000E+00  0.50000000000E+03  0.50000000000E+03  0.00000000000E+00 0.  1.
         11   -1    0    0    0    0 -0.00000000000E+00 -0.00000000000E+00 -0.50000000000E+03  0.50000000000E+03  0.00000000000E+00 0. -1.
         23    2    1    2    0    0  0.51201622659E+01  0.12253552393E+03  0.70422820740E+02  0.16729936583E+03  0.89378596090E+02 0.  0.
        -11    1    1    2    0    0 -0.19069994117E+02  0.10944254553E+03  0.34184472090E+03  0.35944283085E+03  0.00000000000E+00 0.  1.
         11    1    1    2    0    0  0.13949831851E+02 -0.23197806945E+03 -0.41226754164E+03  0.47325780332E+03  0.00000000000E+00 0. -1.
        -15    1    3    3    0    0  0.50143901884E+01  0.46780292165E+02 -0.18396194789E+02  0.50548170646E+02  0.17770000000E+01 0. -1.
         15    1    3    3    0    0  0.10577207751E+00  0.75755231763E+02  0.88819015530E+02  0.11675119518E+03  0.17770000000E+01 0.  1.
</event>
<event>
 7    1  0.2279257E-006  0.4823306E+03  0.7546771E-02  0.9440238E-01
        -11   -1    0    0    0    0  0.00000000000E+00  0.00000000000E+00  0.50000000000E+03  0.50000000000E+03  0.00000000000E+00 0. -1.
         11   -1    0    0    0    0 -0.00000000000E+00 -0.00000000000E+00 -0.50000000000E+03  0.50000000000E+03  0.00000000000E+00 0. -1.
         23    2    1    2    0    0  0.56002833359E+02  0.24847720422E+02  0.47307648812E+03  0.48554206018E+03  0.90531773618E+02 0.  0.
        -11    1    1    2    0    0  0.62969063048E+00 -0.42612210390E+02 -0.53163173544E+01  0.42947179358E+02  0.00000000000E+00 0. -1.
         11    1    1    2    0    0 -0.56632523989E+02  0.17764489968E+02 -0.46776017077E+03  0.47151076046E+03  0.00000000000E+00 0. -1.
        -15    1    3    3    0    0  0.22123769862E+02 -0.29666815435E+02  0.93503413747E+02  0.10057647460E+03  0.17770000000E+01 0.  1.
         15    1    3    3    0    0  0.33879063497E+02  0.54514535857E+02  0.37957307437E+03  0.38496558558E+03  0.17770000000E+01 0. -1.
</event>
<event>
 7    1  0.2279257E-006  0.5213024E+03  0.7546771E-02  0.9353366E-01
        -11   -1    0    0    0    0  0.00000000000E+00  0.00000000000E+00  0.50000000000E+03  0.50000000000E+03  0.00000000000E+00 0. -1.
         11   -1    0    0    0    0 -0.00000000000E+00 -0.00000000000E+00 -0.50000000000E+03  0.50000000000E+03  0.00000000000E+00 0.  1.
         23    2    1    2    0    0  0.83410362019E+02 -0.57006917645E+02 -0.38011443621E+03  0.40597176921E+03  0.10059331799E+03 0.  0.
        -11    1    1    2    0    0 -0.55147523651E+02  0.14075382269E+03  0.45420098011E+03  0.47869762721E+03  0.00000000000E+00 0. -1.
         11    1    1    2    0    0 -0.28262838368E+02 -0.83746905043E+02 -0.74086543894E+02  0.11533060358E+03  0.00000000000E+00 0.  1.
        -15    1    3    3    0    0  0.67768440393E+02  0.85896590020E+01 -0.25300422871E+03  0.26206991668E+03  0.17770000000E+01 0. -1.
         15    1    3    3    0    0  0.15641921625E+02 -0.65596576647E+02 -0.12711020750E+03  0.14390185253E+03  0.17770000000E+01 0.  1.
</event>
<event>
 7    1  0.2279257E-006  0.5335647E+03  0.7546771E-02  0.9327687E-01
        -11   -1    0    0    0    0  0.00000000000E+00  0.00000000000E+00  0.50000000000E+03  0.50000000000E+03  0.00000000000E+00 0.  1.
         11   -1    0    0    0    0 -0.00000000000E+00 -0.00000000000E+00 -0.50000000000E+03  0.50000000000E+03  0.00000000000E+00 0. -1.
         23    2    1    2    0    0  0.31234765936E-02  0.72422850946E+02  0.11373098712E+03  0.17490845143E+03  0.11141435994E+03 0.  0.
        -11    1    1    2    0    0  0.95455002519E+02 -0.48998717640E+02  0.34223057908E+03  0.35865624363E+03  0.00000000000E+00 0.  1.
         11    1    1    2    0    0 -0.95458125995E+02 -0.23424133306E+02 -0.45596156620E+03  0.46643530494E+03  0.00000000000E+00 0. -1.
        -15    1    3    3    0    0 -0.17204362602E+02  0.75496996967E+02  0.12976491243E+03  0.15112205951E+03  0.17770000000E+01 0.  1.
         15    1    3    3    0    0  0.17207486079E+02 -0.30741460206E+01 -0.16033925307E+02  0.23786391922E+02  0.17770000000E+01 0. -1.
</event>
<event>
 7    1  0.2279257E-006  0.4004198E+03  0.7546771E-02  0.9655161E-01
        -11   -1    0    0    0    0  0.00000000000E+00  0.00000000000E+00  0.50000000000E+03  0.50000000000E+03  0.00000000000E+00 0.  1.
         11   -1    0    0    0    0 -0.00000000000E+00 -0.00000000000E+00 -0.50000000000E+03  0.50000000000E+03  0.00000000000E+00 0. -1.
         23    2    1    2    0    0  0.19576098141E+02  0.15789199231E+03 -0.40275286742E+01  0.18349931035E+03  0.91338223418E+02 0.  0.
        -11    1    1    2    0    0 -0.62899648158E+01 -0.86630108480E+02  0.40235878226E+03  0.41162717235E+03  0.00000000000E+00 0.  1.
         11    1    1    2    0    0 -0.13286133325E+02 -0.71261883832E+02 -0.39833125359E+03  0.40487351730E+03  0.00000000000E+00 0. -1.
        -15    1    3    3    0    0  0.23290840111E+02  0.81101130069E+00 -0.11779670429E+02  0.26173256138E+02  0.17770000000E+01 0.  1.
         15    1    3    3    0    0 -0.37147419701E+01  0.15708098101E+03  0.77521417549E+01  0.15732605421E+03  0.17770000000E+01 0. -1.
</event>
<event>
 7    1  0.2279257E-006  0.5092859E+03  0.7546771E-02  0.9379268E-01
        -11   -1    0    0    0    0  0.00000000000E+00  0.00000000000E+00  0.50000000000E+03  0.50000000000E+03  0.00000000000E+00 0. -1.
         11   -1    0    0    0    0 -0.00000000000E+00 -0.00000000000E+00 -0.50000000000E+03  0.50000000000E+03  0.00000000000E+00 0.  1.
         23    2    1    2    0    0  0.22212441721E+02  0.15730490524E+02  0.38233879687E+03  0.39400758433E+03  0.91204057051E+02 0.  0.
        -11    1    1    2    0    0  0.52926201402E+02 -0.19349351272E+01  0.10239223174E+03  0.11527834094E+03  0.00000000000E+00 0. -1.
         11    1    1    2    0    0 -0.75138643123E+02 -0.13795555397E+02 -0.48473102861E+03  0.49071407473E+03  0.00000000000E+00 0.  1.
        -15    1    3    3    0    0  0.10624402049E+02  0.53905200520E+02  0.20654418111E+03  0.21373419250E+03  0.17770000000E+01 0. -1.
         15    1    3    3    0    0  0.11588039672E+02 -0.38174709995E+02  0.17579461575E+03  0.18027339183E+03  0.17770000000E+01 0.  1.
</event>
<event>
 7    1  0.2279257E-006  0.5080513E+03  0.7546771E-02  0.9381972E-01
        -11   -1    0    0    0    0  0.00000000000E+00  0.00000000000E+00  0.50000000000E+03  0.50000000000E+03  0.00000000000E+00 0. -1.
         11   -1    0    0    0    0 -0.00000000000E+00 -0.00000000000E+00 -0.50000000000E+03  0.50000000000E+03  0.00000000000E+00 0.  1.
         23    2    1    2    0    0  0.52264637486E+02  0.17371204730E+02  0.29355411164E+03  0.31253392870E+03  0.92033086676E+02 0.  0.
        -11    1    1    2    0    0  0.56438916370E+02 -0.18957587599E+02  0.18623183576E+03  0.19551736000E+03  0.00000000000E+00 0. -1.
         11    1    1    2    0    0 -0.10870355386E+03  0.15863828689E+01 -0.47978594740E+03  0.49194871130E+03  0.00000000000E+00 0.  1.
        -15    1    3    3    0    0  0.34421442169E+02  0.55058836643E+02  0.19396781956E+03  0.20455557663E+03  0.17770000000E+01 0. -1.
         15    1    3    3    0    0  0.17843195318E+02 -0.37687631913E+02  0.99586292073E+02  0.10797835207E+03  0.17770000000E+01 0.  1.
</event>
<event>
 7    1  0.2279257E-006  0.4452719E+03  0.7546771E-02  0.9531351E-01
        -11   -1    0    0    0    0  0.00000000000E+00  0.00000000000E+00  0.50000000000E+03  0.50000000000E+03  0.00000000000E+00 0.  1.
         11   -1    0    0    0    0 -0.00000000000E+00 -0.00000000000E+00 -0.50000000000E+03  0.50000000000E+03  0.00000000000E+00 0. -1.
         23    2    1    2    0    0  0.10246461672E+02  0.57114757500E+02 -0.74306183644E+00  0.10756742355E+03  0.90571038240E+02 0.  0.
        -11    1    1    2    0    0 -0.11279482741E+03 -0.10581408569E+03  0.42551620693E+03  0.45275085443E+03  0.00000000000E+00 0.  1.
         11    1    1    2    0    0  0.10254836574E+03  0.48699328194E+02 -0.42477314510E+03  0.43968172202E+03  0.00000000000E+00 0. -1.
        -15    1    3    3    0    0  0.31635699310E+02  0.66274079616E+01 -0.31081646320E+02  0.44877237817E+02  0.17770000000E+01 0.  1.
         15    1    3    3    0    0 -0.21389237638E+02  0.50487349538E+02  0.30338584483E+02  0.62690185736E+02  0.17770000000E+01 0. -1.
</event>
<event>
 7    1  0.2279257E-006  0.5290982E+03  0.7546771E-02  0.9336955E-01
        -11   -1    0    0    0    0  0.00000000000E+00  0.00000000000E+00  0.50000000000E+03  0.50000000000E+03  0.00000000000E+00 0. -1.
         11   -1    0    0    0    0 -0.00000000000E+00 -0.00000000000E+00 -0.50000000000E+03  0.50000000000E+03  0.00000000000E+00 0.  1.
         23    2    1    2    0    0  0.71478058175E+01 -0.85663555462E+02  0.32717894975E+03  0.34989573404E+03  0.89395881783E+02 0.  0.
        -11    1    1    2    0    0 -0.13371238899E+03  0.51711624092E+01  0.11919635290E+03  0.17920243981E+03  0.00000000000E+00 0. -1.
         11    1    1    2    0    0  0.12656458317E+03  0.80492393053E+02 -0.44637530265E+03  0.47090182614E+03  0.00000000000E+00 0.  1.
        -15    1    3    3    0    0 -0.37018620491E+02 -0.13987595987E+02  0.95652802940E+02  0.10353090140E+03  0.17770000000E+01 0.  1.
         15    1    3    3    0    0  0.44166426309E+02 -0.71675959476E+02  0.23152614681E+03  0.24636483265E+03  0.17770000000E+01 0. -1.
</event>
<event>
 7    1  0.2279257E-006  0.4828389E+03  0.7546771E-02  0.9439050E-01
        -11   -1    0    0    0    0  0.00000000000E+00  0.00000000000E+00  0.50000000000E+03  0.50000000000E+03  0.00000000000E+00 0. -1.
         11   -1    0    0    0    0 -0.00000000000E+00 -0.00000000000E+00 -0.50000000000E+03  0.50000000000E+03  0.00000000000E+00 0.  1.
         23    2    1    2    0    0 -0.52827206752E+02  0.42529756394E+02  0.46332589770E+03  0.47628901105E+03  0.87068022938E+02 0.  0.
        -11    1    1    2    0    0 -0.37663188669E+02 -0.14084189396E+02  0.96210952258E+01  0.41345442856E+02  0.00000000000E+00 0. -1.
         11    1    1    2    0    0  0.90490395421E+02 -0.28445566997E+02 -0.47294699292E+03  0.48236554609E+03  0.00000000000E+00 0.  1.
        -15    1    3    3    0    0 -0.13064646068E+02  0.44105305961E+02  0.92417774387E+02  0.10324807864E+03  0.17770000000E+01 0.  1.
         15    1    3    3    0    0 -0.39762560684E+02 -0.15755495676E+01  0.37090812331E+03  0.37304093241E+03  0.17770000000E+01 0. -1.
</event>
<event>
 7    1  0.2279257E-006  0.4730179E+03  0.7546771E-02  0.9462294E-01
        -11   -1    0    0    0    0  0.00000000000E+00  0.00000000000E+00  0.50000000000E+03  0.50000000000E+03  0.00000000000E+00 0.  1.
         11   -1    0    0    0    0 -0.00000000000E+00 -0.00000000000E+00 -0.50000000000E+03  0.50000000000E+03  0.00000000000E+00 0.  1.
         23    2    1    2    0    0  0.21319122806E+02  0.52752573676E+02  0.44288671098E+03  0.45587051644E+03  0.91825649834E+02 0.  0.
        -11    1    1    2    0    0  0.48133245934E+02  0.23535143082E+02  0.29119032425E+02  0.60980573738E+02  0.00000000000E+00 0.  1.
         11    1    1    2    0    0 -0.69452368740E+02 -0.76287716758E+02 -0.47200574341E+03  0.48314890982E+03  0.00000000000E+00 0.  1.
        -15    1    3    3    0    0 -0.82088759079E+01  0.19579360711E+02  0.15918194965E+02  0.26594805310E+02  0.17770000000E+01 0. -1.
         15    1    3    3    0    0  0.29527998713E+02  0.33173212965E+02  0.42696851602E+03  0.42927571113E+03  0.17770000000E+01 0.  1.
</event>
<event>
 7    1  0.2279257E-006  0.4299700E+03  0.7546771E-02  0.9571772E-01
        -11   -1    0    0    0    0  0.00000000000E+00  0.00000000000E+00  0.50000000000E+03  0.50000000000E+03  0.00000000000E+00 0.  1.
         11   -1    0    0    0    0 -0.00000000000E+00 -0.00000000000E+00 -0.50000000000E+03  0.50000000000E+03  0.00000000000E+00 0.  1.
         23    2    1    2    0    0 -0.25951742076E+02  0.65790788821E+02  0.41352916819E+03  0.42933219509E+03  0.91202192885E+02 0.  0.
        -11    1    1    2    0    0 -0.30650086249E+02  0.13106639139E+03 -0.33120052825E+02  0.13861733167E+03  0.00000000000E+00 0.  1.
         11    1    1    2    0    0  0.56601828325E+02 -0.19685718021E+03 -0.38040911537E+03  0.43205047324E+03  0.00000000000E+00 0.  1.
        -15    1    3    3    0    0 -0.10101177336E+02 -0.18987794318E+02  0.16177813126E+03  0.16321118711E+03  0.17770000000E+01 0. -1.
         15    1    3    3    0    0 -0.15850564740E+02  0.84778583139E+02  0.25175103694E+03  0.26612100798E+03  0.17770000000E+01 0.  1.
</event>
<event>
 7    1  0.2279257E-006  0.4748913E+03  0.7546771E-02  0.9457814E-01
        -11   -1    0    0    0    0  0.00000000000E+00  0.00000000000E+00  0.50000000000E+03  0.50000000000E+03  0.00000000000E+00 0.  1.
         11   -1    0    0    0    0 -0.00000000000E+00 -0.00000000000E+00 -0.50000000000E+03  0.50000000000E+03  0.00000000000E+00 0. -1.
         23    2    1    2    0    0 -0.18032185306E+01 -0.43076098158E+02  0.47682356482E+03  0.48785574950E+03  0.93721494440E+02 0.  0.
        -11    1    1    2    0    0  0.29373651072E+02  0.43968231898E+02 -0.23301205753E+02  0.57783760549E+02  0.00000000000E+00 0.  1.
         11    1    1    2    0    0 -0.27570432542E+02 -0.89213373990E+00 -0.45352235907E+03  0.45436048995E+03  0.00000000000E+00 0. -1.
        -15    1    3    3    0    0  0.48779693309E+00  0.10572568488E+02  0.34944821550E+03  0.34961297201E+03  0.17770000000E+01 0.  1.
         15    1    3    3    0    0 -0.22910154637E+01 -0.53648666646E+02  0.12737534932E+03  0.13824277749E+03  0.17770000000E+01 0. -1.
</event>
<event>
 6    1  0.2279257E-006  0.5243802E+03  0.7546771E-02  0.9346851E-01
        -11   -1    0    0    0    0  0.00000000000E+00  0.00000000000E+00  0.50000000000E+03  0.50000000000E+03  0.00000000000E+00 0. -1.
         11   -1    0    0    0    0 -0.00000000000E+00 -0.00000000000E+00 -0.50000000000E+03  0.50000000000E+03  0.00000000000E+00 0. -1.
        -11    1    1    2    0    0 -0.45640678853E+02 -0.49452275493E+02  0.29645221492E+03  0.30399426779E+03  0.00000000000E+00 0. -1.
         11    1    1    2    0    0  0.54455905056E+02  0.66108825335E+02 -0.46784435092E+03  0.47561976312E+03  0.00000000000E+00 0. -1.
        -15    1    1    2    0    0 -0.70194859308E+02 -0.22749453398E+02  0.70196791972E+02  0.10186070506E+03  0.17770000000E+01 0.  1.
         15    1    1    2    0    0  0.61379633104E+02  0.60929035559E+01  0.10119534402E+03  0.11852526403E+03  0.17770000000E+01 0. -1.
</event>
<event>
 7    1  0.2279257E-006  0.5220182E+03  0.7546771E-02  0.9351847E-01
        -11   -1    0    0    0    0  0.00000000000E+00  0.00000000000E+00  0.50000000000E+03  0.50000000000E+03  0.00000000000E+00 0.  1.
         11   -1    0    0    0    0 -0.00000000000E+00 -0.00000000000E+00 -0.50000000000E+03  0.50000000000E+03  0.00000000000E+00 0. -1.
         23    2    1    2    0    0  0.77144185783E+02 -0.40423837330E+02  0.13790421803E+03  0.19010501343E+03  0.97657722471E+02 0.  0.
        -11    1    1    2    0    0  0.32400268290E+02  0.44337242841E+02  0.32733900514E+03  0.33191323079E+03  0.00000000000E+00 0.  1.
         11    1    1    2    0    0 -0.10954445407E+03 -0.39134055104E+01 -0.46524322316E+03  0.47798175578E+03  0.00000000000E+00 0. -1.
        -15    1    3    3    0    0  0.51991513625E+02 -0.13170078390E+02  0.70969920412E+01  0.54130337879E+02  0.17770000000E+01 0. -1.
         15    1    3    3    0    0  0.25152672158E+02 -0.27253758940E+02  0.13080722599E+03  0.13597467555E+03  0.17770000000E+01 0.  1.
</event>
<event>
 7    1  0.2279257E-006  0.5056585E+03  0.7546771E-02  0.9387237E-01
        -11   -1    0    0    0    0  0.00000000000E+00  0.00000000000E+00  0.50000000000E+03  0.50000000000E+03  0.00000000000E+00 0.  1.
         11   -1    0    0    0    0 -0.00000000000E+00 -0.00000000000E+00 -0.50000000000E+03  0.50000000000E+03  0.00000000000E+00 0. -1.
         23    2    1    2    0    0  0.23493501933E+02  0.40949898365E+02  0.31626875767E+03  0.32947828962E+03  0.79379956176E+02 0.  0.
        -11    1    1    2    0    0 -0.14049474703E+02  0.34660851840E+02  0.17216478110E+03  0.17618023226E+03  0.00000000000E+00 0.  1.
         11    1    1    2    0    0 -0.94440272301E+01 -0.75610750204E+02 -0.48843353877E+03  0.49434147812E+03  0.00000000000E+00 0. -1.
        -15    1    3    3    0    0  0.39434654725E+01 -0.72232369563E+01 -0.53109695692E+00  0.84359863109E+01  0.17770000000E+01 0.  1.
         15    1    3    3    0    0  0.19550036460E+02  0.48173135321E+02  0.31679985463E+03  0.32104230331E+03  0.17770000000E+01 0. -1.
</event>
<event>
 7    1  0.2279257E-006  0.4110493E+03  0.7546771E-02  0.9624305E-01
        -11   -1    0    0    0    0  0.00000000000E+00  0.00000000000E+00  0.50000000000E+03  0.50000000000E+03  0.00000000000E+00 0. -1.
         11   -1    0    0    0    0 -0.00000000000E+00 -0.00000000000E+00 -0.50000000000E+03  0.50000000000E+03  0.00000000000E+00 0.  1.
         23    2    1    2    0    0 -0.23541925581E+03 -0.18829773329E+02  0.39606119415E+03  0.47075571630E+03  0.94708439679E+02 0.  0.
        -11    1    1    2    0    0  0.15840770971E+03 -0.39532001874E+02 -0.51206312950E+02  0.17110776766E+03  0.00000000000E+00 0. -1.
         11    1    1    2    0    0  0.77011546093E+02  0.58361775202E+02 -0.34485488120E+03  0.35813651604E+03  0.00000000000E+00 0.  1.
        -15    1    3    3    0    0 -0.14390475128E+02 -0.23763296884E+01  0.99174303053E+02  0.10025683434E+03  0.17770000000E+01 0.  1.
         15    1    3    3    0    0 -0.22102878068E+03 -0.16453443640E+02  0.29688689110E+03  0.37049888195E+03  0.17770000000E+01 0. -1.
</event>
<event>
 7    1  0.2279257E-006  0.5223056E+03  0.7546771E-02  0.9351237E-01
        -11   -1    0    0    0    0  0.00000000000E+00  0.00000000000E+00  0.50000000000E+03  0.50000000000E+03  0.00000000000E+00 0.  1.
         11   -1    0    0    0    0 -0.00000000000E+00 -0.00000000000E+00 -0.50000000000E+03  0.50000000000E+03  0.00000000000E+00 0. -1.
         23    2    1    2    0    0  0.27132623100E+02 -0.71029793179E+02 -0.49394071435E+02  0.12878952392E+03  0.91463415765E+02 0.  0.
        -11    1    1    2    0    0 -0.54819754352E+02  0.29431335722E+03  0.37224506950E+03  0.47769441013E+03  0.00000000000E+00 0.  1.
         11    1    1    2    0    0  0.27687131253E+02 -0.22328356404E+03 -0.32285099806E+03  0.39351606595E+03  0.00000000000E+00 0. -1.
        -15    1    3    3    0    0 -0.28933979402E+02 -0.47127116164E+02 -0.10081511639E+02  0.56239975533E+02  0.17770000000E+01 0.  1.
         15    1    3    3    0    0  0.56066602501E+02 -0.23902677014E+02 -0.39312559796E+02  0.72549548388E+02  0.17770000000E+01 0. -1.
</event>
<event>
 7    1  0.2279257E-006  0.3815828E+03  0.7546771E-02  0.9712440E-01
        -11   -1    0    0    0    0  0.00000000000E+00  0.00000000000E+00  0.50000000000E+03  0.50000000000E+03  0.00000000000E+00 0. -1.
         11   -1    0    0    0    0 -0.00000000000E+00 -0.00000000000E+00 -0.50000000000E+03  0.50000000000E+03  0.00000000000E+00 0. -1.
         23    2    1    2    0    0 -0.30564730008E+03  0.19694345095E+02  0.26248140874E+03  0.41347015687E+03  0.90845701124E+02 0.  0.
        -11    1    1    2    0    0  0.19046866421E+03 -0.58204957539E+02  0.86413342692E+02  0.21710226835E+03  0.00000000000E+00 0. -1.
         11    1    1    2    0    0  0.11517863587E+03  0.38510612444E+02 -0.34889475143E+03  0.36942757478E+03  0.00000000000E+00 0. -1.
        -15    1    3    3    0    0 -0.72531095083E+02  0.10099461367E+02  0.17815678288E+02  0.75387764231E+02  0.17770000000E+01 0.  1.
         15    1    3    3    0    0 -0.23311620500E+03  0.95948837281E+01  0.24466573045E+03  0.33808239264E+03  0.17770000000E+01 0. -1.
</event>
<event>
 7    1  0.2279257E-006  0.5067508E+03  0.7546771E-02  0.9384830E-01
        -11   -1    0    0    0    0  0.00000000000E+00  0.00000000000E+00  0.50000000000E+03  0.50000000000E+03  0.00000000000E+00 0. -1.
         11   -1    0    0    0    0 -0.00000000000E+00 -0.00000000000E+00 -0.50000000000E+03  0.50000000000E+03  0.00000000000E+00 0.  1.
         23    2    1    2    0    0  0.71793057318E+01  0.30329453948E+02  0.32679909678E+03  0.34067100755E+03  0.91036627382E+02 0.  0.
        -11    1    1    2    0    0  0.23954078239E+02  0.34312471941E+01  0.16430746270E+03  0.16607984110E+03  0.00000000000E+00 0. -1.
         11    1    1    2    0    0 -0.31133383971E+02 -0.33760701142E+02 -0.49110655948E+03  0.49324915134E+03  0.00000000000E+00 0.  1.
        -15    1    3    3    0    0 -0.41710545545E+01  0.13292736450E+02  0.84520491162E+00  0.14070061790E+02  0.17770000000E+01 0.  1.
         15    1    3    3    0    0  0.11350360286E+02  0.17036717497E+02  0.32595389187E+03  0.32660094576E+03  0.17770000000E+01 0. -1.
</event>
<event>
 7    1  0.2279257E-006  0.4110770E+03  0.7546771E-02  0.9624226E-01
        -11   -1    0    0    0    0  0.00000000000E+00  0.00000000000E+00  0.50000000000E+03  0.50000000000E+03  0.00000000000E+00 0.  1.
         11   -1    0    0    0    0 -0.00000000000E+00 -0.00000000000E+00 -0.50000000000E+03  0.50000000000E+03  0.00000000000E+00 0.  1.
         23    2    1    2    0    0 -0.40350216115E+02 -0.22296166107E+02  0.45357526691E+03  0.46495470953E+03  0.91252946245E+02 0.  0.
        -11    1    1    2    0    0 -0.84352960354E+02 -0.77917595785E+02 -0.12591022585E+03  0.17041114584E+03  0.00000000000E+00 0.  1.
         11    1    1    2    0    0  0.12470317647E+03  0.10021376189E+03 -0.32766504106E+03  0.36463414463E+03  0.00000000000E+00 0.  1.
        -15    1    3    3    0    0 -0.31268813281E+02 -0.34113520288E+02  0.44552002050E+03  0.44792043640E+03  0.17770000000E+01 0.  1.
         15    1    3    3    0    0 -0.90814028346E+01  0.11817354181E+02  0.80552464081E+01  0.17034273127E+02  0.17770000000E+01 0. -1.
</event>
<event>
 7    1  0.2279257E-006  0.5244302E+03  0.7546771E-02  0.9346746E-01
        -11   -1    0    0    0    0  0.00000000000E+00  0.00000000000E+00  0.50000000000E+03  0.50000000000E+03  0.00000000000E+00 0.  1.
         11   -1    0    0    0    0 -0.00000000000E+00 -0.00000000000E+00 -0.50000000000E+03  0.50000000000E+03  0.00000000000E+00 0.  1.
         23    2    1    2    0    0  0.64571475297E+02 -0.45373117838E+02  0.16202245576E+03  0.19879853166E+03  0.83912959507E+02 0.  0.
        -11    1    1    2    0    0 -0.44007605181E+02  0.83935849948E+02  0.31153503175E+03  0.32563165114E+03  0.00000000000E+00 0.  1.
         11    1    1    2    0    0 -0.20563870116E+02 -0.38562732109E+02 -0.47355748751E+03  0.47556981720E+03  0.00000000000E+00 0.  1.
        -15    1    3    3    0    0  0.45967424846E+02 -0.70070134848E+02  0.12541557287E+03  0.15084777623E+03  0.17770000000E+01 0.  1.
         15    1    3    3    0    0  0.18604050451E+02  0.24697017010E+02  0.36606882888E+02  0.47950755429E+02  0.17770000000E+01 0. -1.
</event>
<event>
 7    1  0.2279257E-006  0.3193493E+03  0.7546771E-02  0.9930224E-01
        -11   -1    0    0    0    0  0.00000000000E+00  0.00000000000E+00  0.50000000000E+03  0.50000000000E+03  0.00000000000E+00 0.  1.
         11   -1    0    0    0    0 -0.00000000000E+00 -0.00000000000E+00 -0.50000000000E+03  0.50000000000E+03  0.00000000000E+00 0. -1.
         23    2    1    2    0    0 -0.18326814316E+03 -0.14312455953E+03  0.22554504301E+03  0.33621189789E+03  0.89977897381E+02 0.  0.
        -11    1    1    2    0    0  0.24945246619E+03  0.11904754124E+03  0.12706673535E+03  0.30421177689E+03  0.00000000000E+00 0.  1.
         11    1    1    2    0    0 -0.66184323031E+02  0.24077018286E+02 -0.35261177836E+03  0.35957632523E+03  0.00000000000E+00 0. -1.
        -15    1    3    3    0    0 -0.14915102473E+03 -0.11890295462E+03  0.12707242651E+03  0.22920405778E+03  0.17770000000E+01 0.  1.
         15    1    3    3    0    0 -0.34117118428E+02 -0.24221604909E+02  0.98472616504E+02  0.10700784011E+03  0.17770000000E+01 0. -1.
</event>
<event>
 7    1  0.2279257E-006  0.3647969E+03  0.7546771E-02  0.9766545E-01
        -11   -1    0    0    0    0  0.00000000000E+00  0.00000000000E+00  0.50000000000E+03  0.50000000000E+03  0.00000000000E+00 0.  1.
         11   -1    0    0    0    0 -0.00000000000E+00 -0.00000000000E+00 -0.50000000000E+03  0.50000000000E+03  0.00000000000E+00 0.  1.
         23    2    1    2    0    0 -0.13869347649E+03 -0.37983514728E+02  0.16602080206E+03  0.23806258643E+03  0.91827340862E+02 0.  0.
        -11    1    1    2    0    0  0.11391054808E+03 -0.25038675921E+03  0.16614614692E+03  0.32136223221E+03  0.00000000000E+00 0.  1.
         11    1    1    2    0    0  0.24782928409E+02  0.28837027394E+03 -0.33216694898E+03  0.44057518136E+03  0.00000000000E+00 0.  1.
        -15    1    3    3    0    0 -0.62692967462E+02 -0.34784192802E+02  0.14060856168E+03  0.15784255949E+03  0.17770000000E+01 0. -1.
         15    1    3    3    0    0 -0.76000509028E+02 -0.31993219251E+01  0.25412240384E+02  0.80220026948E+02  0.17770000000E+01 0.  1.
</event>
<event>
 7    1  0.2279257E-006  0.5104786E+03  0.7546771E-02  0.9376664E-01
        -11   -1    0    0    0    0  0.00000000000E+00  0.00000000000E+00  0.50000000000E+03  0.50000000000E+03  0.00000000000E+00 0.  1.
         11   -1    0    0    0    0 -0.00000000000E+00 -0.00000000000E+00 -0.50000000000E+03  0.50000000000E+03  0.00000000000E+00 0. -1.
         23    2    1    2    0    0  0.39739263165E+02  0.47631490452E+02  0.36035520814E+03  0.37281555394E+03  0.72715839422E+02 0.  0.
        -11    1    1    2    0    0 -0.46932923133E+02  0.50411157196E+02  0.11919364915E+03  0.13766303077E+03  0.00000000000E+00 0.  1.
         11    1    1    2    0    0  0.71936599680E+01 -0.98042647648E+02 -0.47954885729E+03  0.48952141529E+03  0.00000000000E+00 0. -1.
        -15    1    3    3    0    0  0.41262066175E+02 -0.44075423288E+01  0.12341676995E+03  0.13021843713E+03  0.17770000000E+01 0.  1.
         15    1    3    3    0    0 -0.15228030100E+01  0.52039032781E+02  0.23693843819E+03  0.24259711681E+03  0.17770000000E+01 0. -1.
</event>
<event>
 7    1  0.2279257E-006  0.4394724E+03  0.7546771E-02  0.9546464E-01
        -11   -1    0    0    0    0  0.00000000000E+00  0.00000000000E+00  0.50000000000E+03  0.50000000000E+03  0.00000000000E+00 0. -1.
         11   -1    0    0    0    0 -0.00000000000E+00 -0.00000000000E+00 -0.50000000000E+03  0.50000000000E+03  0.00000000000E+00 0. -1.
         23    2    1    2    0    0 -0.66947244342E+02  0.32519006724E+02  0.13278515976E+02  0.11780963951E+03  0.90351385448E+02 0.  0.
        -11    1    1    2    0    0  0.36397322847E+02 -0.25734146480E+01  0.43266440261E+03  0.43420026815E+03  0.00000000000E+00 0. -1.
         11    1    1    2    0    0  0.30549921496E+02 -0.29945592077E+02 -0.44594291859E+03  0.44799009233E+03  0.00000000000E+00 0. -1.
        -15    1    3    3    0    0 -0.33401107079E+02  0.11910623948E+02 -0.38738815910E+02  0.52548553777E+02  0.17770000000E+01 0.  1.
         15    1    3    3    0    0 -0.33546137263E+02  0.20608382777E+02  0.52017331886E+02  0.65261085736E+02  0.17770000000E+01 0. -1.
</event>
<event>
 7    1  0.2279257E-006  0.3243500E+03  0.7546771E-02  0.9910822E-01
        -11   -1    0    0    0    0  0.00000000000E+00  0.00000000000E+00  0.50000000000E+03  0.50000000000E+03  0.00000000000E+00 0. -1.
         11   -1    0    0    0    0 -0.00000000000E+00 -0.00000000000E+00 -0.50000000000E+03  0.50000000000E+03  0.00000000000E+00 0. -1.
         23    2    1    2    0    0 -0.56114693294E+02  0.69493144135E+02  0.26415656186E+03  0.29390617149E+03  0.92865454170E+02 0.  0.
        -11    1    1    2    0    0  0.43542793768E+02 -0.28717294611E+03  0.77656574116E+02  0.30065731218E+03  0.00000000000E+00 0. -1.
         11    1    1    2    0    0  0.12571899527E+02  0.21767980197E+03 -0.34181313598E+03  0.40543651633E+03  0.00000000000E+00 0. -1.
        -15    1    3    3    0    0  0.13747261989E+02  0.25312758308E+02  0.15116942685E+03  0.15389956559E+03  0.17770000000E+01 0.  1.
         15    1    3    3    0    0 -0.69861955283E+02  0.44180385827E+02  0.11298713501E+03  0.14000660590E+03  0.17770000000E+01 0. -1.
</event>
<event>
 7    1  0.2279257E-006  0.4618780E+03  0.7546771E-02  0.9489399E-01
        -11   -1    0    0    0    0  0.00000000000E+00  0.00000000000E+00  0.50000000000E+03  0.50000000000E+03  0.00000000000E+00 0. -1.
         11   -1    0    0    0    0 -0.00000000000E+00 -0.00000000000E+00 -0.50000000000E+03  0.50000000000E+03  0.00000000000E+00 0.  1.
         23    2    1    2    0    0  0.13162759410E+02  0.82773683995E+01  0.42852158431E+03  0.43780633701E+03  0.88328180374E+02 0.  0.
        -11    1    1    2    0    0 -0.64179844100E+02  0.99133976524E+00  0.49693533619E+02  0.81175627049E+02  0.00000000000E+00 0. -1.
         11    1    1    2    0    0  0.51017084690E+02 -0.92687081647E+01 -0.47821511793E+03  0.48101803594E+03  0.00000000000E+00 0.  1.
        -15    1    3    3    0    0 -0.35814985329E+02  0.10142010320E+02  0.12820522288E+03  0.13351146187E+03  0.17770000000E+01 0.  1.
         15    1    3    3    0    0  0.48977744739E+02 -0.18646419204E+01  0.30031636143E+03  0.30429487515E+03  0.17770000000E+01 0. -1.
</event>
<event>
 7    1  0.2279257E-006  0.4536935E+03  0.7546771E-02  0.9509837E-01
        -11   -1    0    0    0    0  0.00000000000E+00  0.00000000000E+00  0.50000000000E+03  0.50000000000E+03  0.00000000000E+00 0.  1.
         11   -1    0    0    0    0 -0.00000000000E+00 -0.00000000000E+00 -0.50000000000E+03  0.50000000000E+03  0.00000000000E+00 0.  1.
         23    2    1    2    0    0 -0.21881323416E+02  0.34967988331E+01  0.44532194705E+03  0.45396801802E+03  0.85348139683E+02 0.  0.
        -11    1    1    2    0    0  0.42694938155E+01 -0.95427360398E+02 -0.47653930064E+01  0.95641615735E+02  0.00000000000E+00 0.  1.
         11    1    1    2    0    0  0.17611829600E+02  0.91930561565E+02 -0.44055655404E+03  0.45039036624E+03  0.00000000000E+00 0.  1.
        -15    1    3    3    0    0  0.26358094755E+01 -0.36448439963E+02  0.12547103468E+03  0.13069649781E+03  0.17770000000E+01 0.  1.
         15    1    3    3    0    0 -0.24517132891E+02  0.39945238796E+02  0.31985091237E+03  0.32327152022E+03  0.17770000000E+01 0. -1.
</event>
<event>
 7    1  0.2279257E-006  0.5166308E+03  0.7546771E-02  0.9363347E-01
        -11   -1    0    0    0    0  0.00000000000E+00  0.00000000000E+00  0.50000000000E+03  0.50000000000E+03  0.00000000000E+00 0. -1.
         11   -1    0    0    0    0 -0.00000000000E+00 -0.00000000000E+00 -0.50000000000E+03  0.50000000000E+03  0.00000000000E+00 0.  1.
         23    2    1    2    0    0 -0.11509242937E+02  0.25987488740E+02  0.34288820823E+03  0.35553121250E+03  0.89567334856E+02 0.  0.
        -11    1    1    2    0    0 -0.98802124953E+02  0.22745218684E+02  0.12519539803E+03  0.16109963549E+03  0.00000000000E+00 0. -1.
         11    1    1    2    0    0  0.11031136789E+03 -0.48732707424E+02 -0.46808360626E+03  0.48336915201E+03  0.00000000000E+00 0.  1.
        -15    1    3    3    0    0  0.11827874540E+02  0.21638831019E+02  0.20093086849E+02  0.31859496106E+02  0.17770000000E+01 0.  1.
         15    1    3    3    0    0 -0.23337117477E+02  0.43486577218E+01  0.32279512138E+03  0.32367171639E+03  0.17770000000E+01 0. -1.
</event>
<event>
 7    1  0.2279257E-006  0.4466114E+03  0.7546771E-02  0.9527895E-01
        -11   -1    0    0    0    0  0.00000000000E+00  0.00000000000E+00  0.50000000000E+03  0.50000000000E+03  0.00000000000E+00 0.  1.
         11   -1    0    0    0    0 -0.00000000000E+00 -0.00000000000E+00 -0.50000000000E+03  0.50000000000E+03  0.00000000000E+00 0.  1.
         23    2    1    2    0    0  0.55981007010E+02 -0.46433781907E+02  0.40986400676E+03  0.42629425648E+03  0.91914742133E+02 0.  0.
        -11    1    1    2    0    0 -0.34777126536E+02  0.90115839003E+02  0.51724256455E+02  0.10957057851E+03  0.00000000000E+00 0.  1.
         11    1    1    2    0    0 -0.21203880474E+02 -0.43682057096E+02 -0.46158826322E+03  0.46413516501E+03  0.00000000000E+00 0.  1.
        -15    1    3    3    0    0 -0.86744999919E+01  0.48108231324E+01  0.21379660316E+01  0.10301436651E+02  0.17770000000E+01 0. -1.
         15    1    3    3    0    0  0.64655507002E+02 -0.51244605040E+02  0.40772604073E+03  0.41599281983E+03  0.17770000000E+01 0.  1.
</event>
<event>
 7    1  0.2279257E-006  0.3583366E+03  0.7546771E-02  0.9788205E-01
        -11   -1    0    0    0    0  0.00000000000E+00  0.00000000000E+00  0.50000000000E+03  0.50000000000E+03  0.00000000000E+00 0. -1.
         11   -1    0    0    0    0 -0.00000000000E+00 -0.00000000000E+00 -0.50000000000E+03  0.50000000000E+03  0.00000000000E+00 0. -1.
         23    2    1    2    0    0  0.95089288882E+02  0.54545704070E+02 -0.26060240412E+03  0.29725530393E+03  0.91814465026E+02 0.  0.
        -11    1    1    2    0    0  0.83858690790E+02 -0.96197556493E+02  0.43262337703E+03  0.45105347382E+03  0.00000000000E+00 0. -1.
         11    1    1    2    0    0 -0.17894797967E+03  0.41651852423E+02 -0.17202097290E+03  0.25169122225E+03  0.00000000000E+00 0. -1.
        -15    1    3    3    0    0  0.16690148582E+02 -0.24695595964E+02 -0.75261498246E+02  0.80968415861E+02  0.17770000000E+01 0.  1.
         15    1    3    3    0    0  0.78399140301E+02  0.79241300034E+02 -0.18534090587E+03  0.21628688807E+03  0.17770000000E+01 0. -1.
</event>
<event>
 7    1  0.2279257E-006  0.5171632E+03  0.7546771E-02  0.9362204E-01
        -11   -1    0    0    0    0  0.00000000000E+00  0.00000000000E+00  0.50000000000E+03  0.50000000000E+03  0.00000000000E+00 0.  1.
         11   -1    0    0    0    0 -0.00000000000E+00 -0.00000000000E+00 -0.50000000000E+03  0.50000000000E+03  0.00000000000E+00 0. -1.
         23    2    1    2    0    0  0.54474029825E+02  0.38648915444E+02  0.38847427628E+03  0.40533253342E+03  0.94451261113E+02 0.  0.
        -11    1    1    2    0    0  0.20451991318E+02  0.82272573925E+02  0.72931703722E+02  0.11183064775E+03  0.00000000000E+00 0.  1.
         11    1    1    2    0    0 -0.74926021143E+02 -0.12092148937E+03 -0.46140598000E+03  0.48283681883E+03  0.00000000000E+00 0. -1.
        -15    1    3    3    0    0  0.24015343217E+02  0.16853749272E+02  0.35131705487E+03  0.35254448846E+03  0.17770000000E+01 0.  1.
         15    1    3    3    0    0  0.30458686608E+02  0.21795166172E+02  0.37157221411E+02  0.52788044957E+02  0.17770000000E+01 0. -1.
</event>
<event>
 7    1  0.2279257E-006  0.3937181E+03  0.7546771E-02  0.9675146E-01
        -11   -1    0    0    0    0  0.00000000000E+00  0.00000000000E+00  0.50000000000E+03  0.50000000000E+03  0.00000000000E+00 0.  1.
         11   -1    0    0    0    0 -0.00000000000E+00 -0.00000000000E+00 -0.50000000000E+03  0.50000000000E+03  0.00000000000E+00 0. -1.
         23    2    1    2    0    0 -0.16842198752E+03 -0.22341136415E+02  0.22719539526E+01  0.19444058665E+03  0.94535113625E+02 0.  0.
        -11    1    1    2    0    0  0.25503012401E+03 -0.13238946569E+03  0.32470868132E+03  0.43359319932E+03  0.00000000000E+00 0.  1.
         11    1    1    2    0    0 -0.86608136491E+02  0.15473060211E+03 -0.32698063527E+03  0.37196621402E+03  0.00000000000E+00 0. -1.
        -15    1    3    3    0    0 -0.10256425082E+03 -0.52966498976E+02  0.25376560064E+02  0.11820322792E+03  0.17770000000E+01 0.  1.
         15    1    3    3    0    0 -0.65857736695E+02  0.30625362560E+02 -0.23104606112E+02  0.76237358737E+02  0.17770000000E+01 0. -1.
</event>
<event>
 7    1  0.2279257E-006  0.5074625E+03  0.7546771E-02  0.9383265E-01
        -11   -1    0    0    0    0  0.00000000000E+00  0.00000000000E+00  0.50000000000E+03  0.50000000000E+03  0.00000000000E+00 0.  1.
         11   -1    0    0    0    0 -0.00000000000E+00 -0.00000000000E+00 -0.50000000000E+03  0.50000000000E+03  0.00000000000E+00 0. -1.
         23    2    1    2    0    0  0.54646222536E+01  0.11391038939E+02 -0.27022174205E+03  0.28508760915E+03  0.89975202990E+02 0.  0.
        -11    1    1    2    0    0 -0.72961090242E+01 -0.37437032632E+02  0.49105845310E+03  0.49253747977E+03  0.00000000000E+00 0.  1.
         11    1    1    2    0    0  0.18314867706E+01  0.26045993693E+02 -0.22083671105E+03  0.22237491108E+03  0.00000000000E+00 0. -1.
        -15    1    3    3    0    0  0.41731605020E+02  0.25376527563E+02 -0.11288669087E+03  0.12301242910E+03  0.17770000000E+01 0.  1.
         15    1    3    3    0    0 -0.36266982766E+02 -0.13985488625E+02 -0.15733505117E+03  0.16207518005E+03  0.17770000000E+01 0. -1.
</event>
<event>
 7    1  0.2279257E-006  0.4893861E+03  0.7546771E-02  0.9423877E-01
        -11   -1    0    0    0    0  0.00000000000E+00  0.00000000000E+00  0.50000000000E+03  0.50000000000E+03  0.00000000000E+00 0.  1.
         11   -1    0    0    0    0 -0.00000000000E+00 -0.00000000000E+00 -0.50000000000E+03  0.50000000000E+03  0.00000000000E+00 0. -1.
         23    2    1    2    0    0 -0.14013180554E+02 -0.62977496661E+02  0.46701648016E+03  0.48014967317E+03  0.90976818968E+02 0.  0.
        -11    1    1    2    0    0 -0.27298026098E+01 -0.24857001649E+02  0.15299845314E+02  0.29315654860E+02  0.00000000000E+00 0.  1.
         11    1    1    2    0    0  0.16742983164E+02  0.87834498310E+02 -0.48231632548E+03  0.49053467197E+03  0.00000000000E+00 0. -1.
        -15    1    3    3    0    0 -0.31535494499E+02 -0.13181101478E+02  0.55127388557E+02  0.64887714920E+02  0.17770000000E+01 0. -1.
         15    1    3    3    0    0  0.17522313945E+02 -0.49796395183E+02  0.41188909161E+03  0.41526195825E+03  0.17770000000E+01 0.  1.
</event>
<event>
 7    1  0.2279257E-006  0.5115161E+03  0.7546771E-02  0.9374404E-01
        -11   -1    0    0    0    0  0.00000000000E+00  0.00000000000E+00  0.50000000000E+03  0.50000000000E+03  0.00000000000E+00 0. -1.
         11   -1    0    0    0    0 -0.00000000000E+00 -0.00000000000E+00 -0.50000000000E+03  0.50000000000E+03  0.00000000000E+00 0.  1.
         23    2    1    2    0    0 -0.10755584118E+03 -0.15955122983E+03 -0.29481398565E+03  0.36362493185E+03  0.91010719212E+02 0.  0.
        -11    1    1    2    0    0  0.21055251370E+03  0.22080271221E+03  0.38148432702E+03  0.48848386924E+03  0.00000000000E+00 0. -1.
         11    1    1    2    0    0 -0.10299667251E+03 -0.61251482376E+02 -0.86670341372E+02  0.14789119891E+03  0.00000000000E+00 0.  1.
        -15    1    3    3    0    0 -0.59161283743E+02 -0.15278342944E+03 -0.22202811860E+03  0.27593926322E+03  0.17770000000E+01 0.  1.
         15    1    3    3    0    0 -0.48394557442E+02 -0.67678003922E+01 -0.72785867049E+02  0.87685668630E+02  0.17770000000E+01 0. -1.
</event>
<event>
 7    1  0.2279257E-006  0.5016811E+03  0.7546771E-02  0.9396056E-01
        -11   -1    0    0    0    0  0.00000000000E+00  0.00000000000E+00  0.50000000000E+03  0.50000000000E+03  0.00000000000E+00 0.  1.
         11   -1    0    0    0    0 -0.00000000000E+00 -0.00000000000E+00 -0.50000000000E+03  0.50000000000E+03  0.00000000000E+00 0.  1.
         23    2    1    2    0    0  0.11236873102E+02  0.82387934477E-01  0.48984705897E+03  0.49831885031E+03  0.90803421090E+02 0.  0.
        -11    1    1    2    0    0 -0.29892770919E+02 -0.45538101108E+02 -0.18335706346E+03  0.19127757090E+03  0.00000000000E+00 0.  1.
         11    1    1    2    0    0  0.18655897817E+02  0.45455713174E+02 -0.30648999551E+03  0.31040357880E+03  0.00000000000E+00 0.  1.
        -15    1    3    3    0    0 -0.11712794240E+02 -0.33527079306E+02  0.96056162841E+02  0.10242655293E+03  0.17770000000E+01 0. -1.
         15    1    3    3    0    0  0.22949667342E+02  0.33609467241E+02  0.39379089613E+03  0.39589229738E+03  0.17770000000E+01 0.  1.
</event>
<event>
 7    1  0.2279257E-006  0.4534258E+03  0.7546771E-02  0.9510513E-01
        -11   -1    0    0    0    0  0.00000000000E+00  0.00000000000E+00  0.50000000000E+03  0.50000000000E+03  0.00000000000E+00 0.  1.
         11   -1    0    0    0    0 -0.00000000000E+00 -0.00000000000E+00 -0.50000000000E+03  0.50000000000E+03  0.00000000000E+00 0.  1.
         23    2    1    2    0    0 -0.84586452870E+02  0.22611343580E+02  0.44142557703E+03  0.45906728144E+03  0.90664700767E+02 0.  0.
        -11    1    1    2    0    0  0.81596610554E+01 -0.96165119861E+02 -0.10425591879E+02  0.97072155186E+02  0.00000000000E+00 0.  1.
         11    1    1    2    0    0  0.76426791815E+02  0.73553776281E+02 -0.43099998515E+03  0.44386056337E+03  0.00000000000E+00 0.  1.
        -15    1    3    3    0    0 -0.71440736115E+02 -0.45590706011E+01  0.40698950219E+03  0.41324106345E+03  0.17770000000E+01 0.  1.
         15    1    3    3    0    0 -0.13145716756E+02  0.27170414181E+02  0.34436074845E+02  0.45826217993E+02  0.17770000000E+01 0. -1.
</event>
<event>
 7    1  0.2279257E-006  0.5247643E+03  0.7546771E-02  0.9346041E-01
        -11   -1    0    0    0    0  0.00000000000E+00  0.00000000000E+00  0.50000000000E+03  0.50000000000E+03  0.00000000000E+00 0. -1.
         11   -1    0    0    0    0 -0.00000000000E+00 -0.00000000000E+00 -0.50000000000E+03  0.50000000000E+03  0.00000000000E+00 0.  1.
         23    2    1    2    0    0 -0.50137033968E+02  0.64169263217E+02 -0.12322396694E+03  0.17365638125E+03  0.91328945051E+02 0.  0.
        -11    1    1    2    0    0  0.93562277444E+02 -0.13847608078E+01  0.46593252170E+03  0.47523565954E+03  0.00000000000E+00 0. -1.
         11    1    1    2    0    0 -0.43425243476E+02 -0.62784502409E+02 -0.34270855476E+03  0.35110795921E+03  0.00000000000E+00 0.  1.
        -15    1    3    3    0    0 -0.69524671791E+02  0.17390351517E+02 -0.71461750631E+02  0.10122274372E+03  0.17770000000E+01 0. -1.
         15    1    3    3    0    0  0.19387637823E+02  0.46778911700E+02 -0.51762216311E+02  0.72433637535E+02  0.17770000000E+01 0.  1.
</event>
<event>
 7    1  0.2279257E-006  0.5034769E+03  0.7546771E-02  0.9392063E-01
        -11   -1    0    0    0    0  0.00000000000E+00  0.00000000000E+00  0.50000000000E+03  0.50000000000E+03  0.00000000000E+00 0. -1.
         11   -1    0    0    0    0 -0.00000000000E+00 -0.00000000000E+00 -0.50000000000E+03  0.50000000000E+03  0.00000000000E+00 0.  1.
         23    2    1    2    0    0 -0.13476531888E+03  0.93927569911E+02 -0.28057263256E+03  0.33139016265E+03  0.64143263077E+02 0.  0.
        -11    1    1    2    0    0  0.20340497691E+03 -0.16150879234E+03  0.42317429024E+03  0.49652306548E+03  0.00000000000E+00 0. -1.
         11    1    1    2    0    0 -0.68639658027E+02  0.67581222433E+02 -0.14260165768E+03  0.17208677187E+03  0.00000000000E+00 0.  1.
        -15    1    3    3    0    0 -0.97374537601E+02  0.55491657378E+02 -0.23737446457E+03  0.26250889275E+03  0.17770000000E+01 0.  1.
         15    1    3    3    0    0 -0.37390781283E+02  0.38435912533E+02 -0.43198167986E+02  0.68881269904E+02  0.17770000000E+01 0. -1.
</event>
<event>
 7    1  0.2279257E-006  0.5225612E+03  0.7546771E-02  0.9350696E-01
        -11   -1    0    0    0    0  0.00000000000E+00  0.00000000000E+00  0.50000000000E+03  0.50000000000E+03  0.00000000000E+00 0. -1.
         11   -1    0    0    0    0 -0.00000000000E+00 -0.00000000000E+00 -0.50000000000E+03  0.50000000000E+03  0.00000000000E+00 0.  1.
         23    2    1    2    0    0  0.22321919548E+03  0.30640382836E+02 -0.20666442109E+03  0.32036720864E+03  0.95704352758E+02 0.  0.
        -11    1    1    2    0    0 -0.26150745282E+03 -0.13347604595E+03  0.37649148525E+03  0.47743883502E+03  0.00000000000E+00 0. -1.
         11    1    1    2    0    0  0.38288257339E+02  0.10283566312E+03 -0.16982706416E+03  0.20219395634E+03  0.00000000000E+00 0.  1.
        -15    1    3    3    0    0  0.17018820984E+03 -0.19949233908E+02 -0.14930332575E+03  0.22728097041E+03  0.17770000000E+01 0. -1.
         15    1    3    3    0    0  0.53030985644E+02  0.50589616744E+02 -0.57361095331E+02  0.93086238227E+02  0.17770000000E+01 0.  1.
</event>
<event>
 7    1  0.2279257E-006  0.5082152E+03  0.7546771E-02  0.9381613E-01
        -11   -1    0    0    0    0  0.00000000000E+00  0.00000000000E+00  0.50000000000E+03  0.50000000000E+03  0.00000000000E+00 0. -1.
         11   -1    0    0    0    0 -0.00000000000E+00 -0.00000000000E+00 -0.50000000000E+03  0.50000000000E+03  0.00000000000E+00 0.  1.
         23    2    1    2    0    0 -0.51814722705E+02  0.29154726519E+02  0.24907832628E+03  0.27154087231E+03  0.90330887003E+02 0.  0.
        -11    1    1    2    0    0 -0.18610986448E+02  0.29394583189E+02  0.23410327171E+03  0.23667435890E+03  0.00000000000E+00 0. -1.
         11    1    1    2    0    0  0.70425709153E+02 -0.58549309709E+02 -0.48318159799E+03  0.49178476879E+03  0.00000000000E+00 0.  1.
        -15    1    3    3    0    0 -0.97439142307E+01  0.56658285992E+02  0.12227933368E+03  0.13513141163E+03  0.17770000000E+01 0. -1.
         15    1    3    3    0    0 -0.42070808474E+02 -0.27503559473E+02  0.12679899260E+03  0.13640946068E+03  0.17770000000E+01 0.  1.
</event>
<event>
 7    1  0.2279257E-006  0.5153492E+03  0.7546771E-02  0.9366105E-01
        -11   -1    0    0    0    0  0.00000000000E+00  0.00000000000E+00  0.50000000000E+03  0.50000000000E+03  0.00000000000E+00 0.  1.
         11   -1    0    0    0    0 -0.00000000000E+00 -0.00000000000E+00 -0.50000000000E+03  0.50000000000E+03  0.00000000000E+00 0.  1.
         23    2    1    2    0    0 -0.65769222180E+02  0.39549447461E+02  0.30664473400E+03  0.32936646599E+03  0.92528518024E+02 0.  0.
        -11    1    1    2    0    0 -0.91993862037E+02  0.93451170598E+02  0.13188470499E+03  0.18598270712E+03  0.00000000000E+00 0.  1.
         11    1    1    2    0    0  0.15776308422E+03 -0.13300061806E+03 -0.43852943899E+03  0.48465082689E+03  0.00000000000E+00 0.  1.
        -15    1    3    3    0    0 -0.69885427145E+02  0.64346227095E+02  0.24294188156E+03  0.26086073950E+03  0.17770000000E+01 0.  1.
         15    1    3    3    0    0  0.41162049652E+01 -0.24796779634E+02  0.63702852440E+02  0.68505726487E+02  0.17770000000E+01 0. -1.
</event>
<event>
 7    1  0.2279257E-006  0.5389345E+03  0.7546771E-02  0.9316672E-01
        -11   -1    0    0    0    0  0.00000000000E+00  0.00000000000E+00  0.50000000000E+03  0.50000000000E+03  0.00000000000E+00 0.  1.
         11   -1    0    0    0    0 -0.00000000000E+00 -0.00000000000E+00 -0.50000000000E+03  0.50000000000E+03  0.00000000000E+00 0. -1.
         23    2    1    2    0    0  0.78250644357E+02  0.37195893274E+02 -0.71729258207E+02  0.14587088173E+03  0.92879114088E+02 0.  0.
        -11    1    1    2    0    0  0.70886639191E+01 -0.96360848704E+02  0.45082782473E+03  0.46106549412E+03  0.00000000000E+00 0.  1.
         11    1    1    2    0    0 -0.85339308276E+02  0.59164955430E+02 -0.37909856653E+03  0.39306362415E+03  0.00000000000E+00 0. -1.
        -15    1    3    3    0    0  0.95421558445E+02  0.42710723914E+02 -0.45594877466E+02  0.11406809516E+03  0.17770000000E+01 0.  1.
         15    1    3    3    0    0 -0.17170914088E+02 -0.55148306406E+01 -0.26134380740E+02  0.31802786565E+02  0.17770000000E+01 0. -1.
</event>
<event>
 7    1  0.2279257E-006  0.5203783E+03  0.7546771E-02  0.9355332E-01
        -11   -1    0    0    0    0  0.00000000000E+00  0.00000000000E+00  0.50000000000E+03  0.50000000000E+03  0.00000000000E+00 0.  1.
         11   -1    0    0    0    0 -0.00000000000E+00 -0.00000000000E+00 -0.50000000000E+03  0.50000000000E+03  0.00000000000E+00 0.  1.
         23    2    1    2    0    0 -0.24319304353E+02  0.19167405550E+02  0.81880795474E+02  0.12075663991E+03  0.83179825770E+02 0.  0.
        -11    1    1    2    0    0  0.15096096669E+02 -0.42227857657E+02  0.39709743234E+03  0.39962163964E+03  0.00000000000E+00 0.  1.
         11    1    1    2    0    0  0.92232076848E+01  0.23060452107E+02 -0.47897822781E+03  0.47962172045E+03  0.00000000000E+00 0.  1.
        -15    1    3    3    0    0 -0.28965465569E+01 -0.12951316294E+02 -0.12780137514E+02  0.18509895180E+02  0.17770000000E+01 0. -1.
         15    1    3    3    0    0 -0.21422757796E+02  0.32118721844E+02  0.94660932988E+02  0.10224674473E+03  0.17770000000E+01 0.  1.
</event>
<event>
 7    1  0.2279257E-006  0.5119454E+03  0.7546771E-02  0.9373471E-01
        -11   -1    0    0    0    0  0.00000000000E+00  0.00000000000E+00  0.50000000000E+03  0.50000000000E+03  0.00000000000E+00 0.  1.
         11   -1    0    0    0    0 -0.00000000000E+00 -0.00000000000E+00 -0.50000000000E+03  0.50000000000E+03  0.00000000000E+00 0. -1.
         23    2    1    2    0    0  0.80555708978E+01 -0.45989471475E+02 -0.24307689870E+03  0.26479519600E+03  0.94075466703E+02 0.  0.
        -11    1    1    2    0    0  0.63778858509E+02  0.89338487792E+02  0.47555037126E+03  0.48805457052E+03  0.00000000000E+00 0.  1.
         11    1    1    2    0    0 -0.71834429406E+02 -0.43349016317E+02 -0.23247347257E+03  0.24715023348E+03  0.00000000000E+00 0. -1.
        -15    1    3    3    0    0 -0.11337165371E+02 -0.10812510473E+02 -0.21541475287E+03  0.21599100718E+03  0.17770000000E+01 0. -1.
         15    1    3    3    0    0  0.19392736269E+02 -0.35176961002E+02 -0.27662145830E+02  0.48804188818E+02  0.17770000000E+01 0.  1.
</event>
<event>
 7    1  0.2279257E-006  0.5175442E+03  0.7546771E-02  0.9361387E-01
        -11   -1    0    0    0    0  0.00000000000E+00  0.00000000000E+00  0.50000000000E+03  0.50000000000E+03  0.00000000000E+00 0.  1.
         11   -1    0    0    0    0 -0.00000000000E+00 -0.00000000000E+00 -0.50000000000E+03  0.50000000000E+03  0.00000000000E+00 0.  1.
         23    2    1    2    0    0 -0.60794491778E+02 -0.31578747435E+02  0.16077183899E+03  0.19793432012E+03  0.92936663091E+02 0.  0.
        -11    1    1    2    0    0 -0.18452310457E+02 -0.16804389891E+03  0.27124015524E+03  0.31960985832E+03  0.00000000000E+00 0.  1.
         11    1    1    2    0    0  0.79246802235E+02  0.19962264634E+03 -0.43201199423E+03  0.48245582156E+03  0.00000000000E+00 0.  1.
        -15    1    3    3    0    0 -0.82088888330E+02 -0.30927537509E+02  0.15051875986E+03  0.17422443274E+03  0.17770000000E+01 0.  1.
         15    1    3    3    0    0  0.21294396552E+02 -0.65120992515E+00  0.10253079136E+02  0.23709887381E+02  0.17770000000E+01 0. -1.
</event>
<event>
 7    1  0.2279257E-006  0.4642059E+03  0.7546771E-02  0.9483668E-01
        -11   -1    0    0    0    0  0.00000000000E+00  0.00000000000E+00  0.50000000000E+03  0.50000000000E+03  0.00000000000E+00 0.  1.
         11   -1    0    0    0    0 -0.00000000000E+00 -0.00000000000E+00 -0.50000000000E+03  0.50000000000E+03  0.00000000000E+00 0. -1.
         23    2    1    2    0    0  0.16113839323E+03 -0.41838076949E+02  0.43758330430E+03  0.47700282479E+03  0.91304655969E+02 0.  0.
        -11    1    1    2    0    0 -0.28817728087E+02  0.70640865668E+02 -0.13065493022E+02  0.77403491280E+02  0.00000000000E+00 0.  1.
         11    1    1    2    0    0 -0.13232066515E+03 -0.28802788719E+02 -0.42451781128E+03  0.44559368393E+03  0.00000000000E+00 0. -1.
        -15    1    3    3    0    0  0.55679356241E+02 -0.31092736482E+02  0.27929858867E+03  0.28649224829E+03  0.17770000000E+01 0. -1.
         15    1    3    3    0    0  0.10545903699E+03 -0.10745340468E+02  0.15828471563E+03  0.19051057650E+03  0.17770000000E+01 0.  1.
</event>
<event>
 7    1  0.2279257E-006  0.3833522E+03  0.7546771E-02  0.9706910E-01
        -11   -1    0    0    0    0  0.00000000000E+00  0.00000000000E+00  0.50000000000E+03  0.50000000000E+03  0.00000000000E+00 0.  1.
         11   -1    0    0    0    0 -0.00000000000E+00 -0.00000000000E+00 -0.50000000000E+03  0.50000000000E+03  0.00000000000E+00 0.  1.
         23    2    1    2    0    0 -0.18744758176E+03  0.55852017488E+02  0.32522413204E+03  0.39092915704E+03  0.93802057555E+02 0.  0.
        -11    1    1    2    0    0  0.16716781092E+03 -0.11942679786E+03  0.63207459945E+02  0.21494887775E+03  0.00000000000E+00 0.  1.
         11    1    1    2    0    0  0.20279770837E+02  0.63574780368E+02 -0.38843159199E+03  0.39412196520E+03  0.00000000000E+00 0.  1.
        -15    1    3    3    0    0 -0.71491047274E+02  0.69001202956E+01  0.20355256825E+03  0.21585964716E+03  0.17770000000E+01 0.  1.
         15    1    3    3    0    0 -0.11595653448E+03  0.48951897193E+02  0.12167156379E+03  0.17506950989E+03  0.17770000000E+01 0. -1.
</event>
<event>
 7    1  0.2279257E-006  0.5323625E+03  0.7546771E-02  0.9330172E-01
        -11   -1    0    0    0    0  0.00000000000E+00  0.00000000000E+00  0.50000000000E+03  0.50000000000E+03  0.00000000000E+00 0. -1.
         11   -1    0    0    0    0 -0.00000000000E+00 -0.00000000000E+00 -0.50000000000E+03  0.50000000000E+03  0.00000000000E+00 0. -1.
         23    2    1    2    0    0  0.30281282943E+02 -0.84996328267E+02  0.17553363710E+03  0.21730923264E+03  0.90939061573E+02 0.  0.
        -11    1    1    2    0    0  0.63506786829E+01  0.12551203020E+03  0.28890302467E+03  0.31505326297E+03  0.00000000000E+00 0. -1.
         11    1    1    2    0    0 -0.36631961626E+02 -0.40515701931E+02 -0.46443666177E+03  0.46763750439E+03  0.00000000000E+00 0. -1.
        -15    1    3    3    0    0  0.18206904343E+02 -0.34006648777E+02  0.15703283591E+03  0.16171089267E+03  0.17770000000E+01 0. -1.
         15    1    3    3    0    0  0.12074378599E+02 -0.50989679489E+02  0.18500801194E+02  0.55598339965E+02  0.17770000000E+01 0.  1.
</event>
<event>
 7    1  0.2279257E-006  0.3508146E+03  0.7546771E-02  0.9814050E-01
        -11   -1    0    0    0    0  0.00000000000E+00  0.00000000000E+00  0.50000000000E+03  0.50000000000E+03  0.00000000000E+00 0. -1.
         11   -1    0    0    0    0 -0.00000000000E+00 -0.00000000000E+00 -0.50000000000E+03  0.50000000000E+03  0.00000000000E+00 0.  1.
         23    2    1    2    0    0 -0.10413417419E+01  0.16027992247E+02  0.26458427833E+03  0.28109343970E+03  0.93545179333E+02 0.  0.
        -11    1    1    2    0    0 -0.21153743242E+03 -0.79207304451E+02  0.13410425044E+03  0.26268961224E+03  0.00000000000E+00 0. -1.
         11    1    1    2    0    0  0.21257877416E+03  0.63179312204E+02 -0.39868852877E+03  0.45621694805E+03  0.00000000000E+00 0.  1.
        -15    1    3    3    0    0  0.33876151098E+02  0.31241055313E+02  0.77666058867E+02  0.90325918646E+02  0.17770000000E+01 0.  1.
         15    1    3    3    0    0 -0.34917492840E+02 -0.15213063066E+02  0.18691821946E+03  0.19076752106E+03  0.17770000000E+01 0. -1.
</event>
<event>
 7    1  0.2279257E-006  0.3993667E+03  0.7546771E-02  0.9658274E-01
        -11   -1    0    0    0    0  0.00000000000E+00  0.00000000000E+00  0.50000000000E+03  0.50000000000E+03  0.00000000000E+00 0. -1.
         11   -1    0    0    0    0 -0.00000000000E+00 -0.00000000000E+00 -0.50000000000E+03  0.50000000000E+03  0.00000000000E+00 0.  1.
         23    2    1    2    0    0 -0.30609890498E+03 -0.69457338819E+02  0.30437949324E+03  0.44654904018E+03  0.90765124583E+02 0.  0.
        -11    1    1    2    0    0  0.18629803939E+03 -0.18509386059E+02  0.28053319867E+02  0.18930542942E+03  0.00000000000E+00 0. -1.
         11    1    1    2    0    0  0.11980086558E+03  0.87966724878E+02 -0.33243281310E+03  0.36414553040E+03  0.00000000000E+00 0.  1.
        -15    1    3    3    0    0 -0.41590808576E+02 -0.44680088968E+02  0.57204723932E+02  0.83675826123E+02  0.17770000000E+01 0.  1.
         15    1    3    3    0    0 -0.26450809640E+03 -0.24777249851E+02  0.24717476930E+03  0.36287321406E+03  0.17770000000E+01 0. -1.
</event>
<event>
 6    1  0.2279257E-006  0.3761657E+03  0.7546771E-02  0.9729570E-01
        -11   -1    0    0    0    0  0.00000000000E+00  0.00000000000E+00  0.50000000000E+03  0.50000000000E+03  0.00000000000E+00 0.  1.
         11   -1    0    0    0    0 -0.00000000000E+00 -0.00000000000E+00 -0.50000000000E+03  0.50000000000E+03  0.00000000000E+00 0. -1.
        -11    1    1    2    0    0 -0.81723513195E+02  0.18654279585E+03  0.39580524461E+03  0.44512777823E+03  0.00000000000E+00 0.  1.
         11    1    1    2    0    0  0.10014258816E+03 -0.22177473718E+02 -0.31321755421E+03  0.32958400230E+03  0.00000000000E+00 0. -1.
        -15    1    1    2    0    0 -0.31599597780E+02 -0.23681104322E+02 -0.73781002769E+02  0.83702588851E+02  0.17770000000E+01 0.  1.
         15    1    1    2    0    0  0.13180522811E+02 -0.14068421781E+03 -0.88066876283E+01  0.14158563062E+03  0.17770000000E+01 0. -1.
</event>
<event>
 7    1  0.2279257E-006  0.5405836E+03  0.7546771E-02  0.9313316E-01
        -11   -1    0    0    0    0  0.00000000000E+00  0.00000000000E+00  0.50000000000E+03  0.50000000000E+03  0.00000000000E+00 0.  1.
         11   -1    0    0    0    0 -0.00000000000E+00 -0.00000000000E+00 -0.50000000000E+03  0.50000000000E+03  0.00000000000E+00 0. -1.
         23    2    1    2    0    0  0.82993987469E+02 -0.35200544469E+02  0.20980633425E+03  0.24565503955E+03  0.90557276222E+02 0.  0.
        -11    1    1    2    0    0 -0.16940504184E+03  0.14981155665E+02  0.24095716375E+03  0.29492856421E+03  0.00000000000E+00 0.  1.
         11    1    1    2    0    0  0.86411054368E+02  0.20219388804E+02 -0.45076349800E+03  0.45941639624E+03  0.00000000000E+00 0. -1.
        -15    1    3    3    0    0  0.34457997377E+02  0.10606499275E+02  0.13892681006E+02  0.38678362486E+02  0.17770000000E+01 0. -1.
         15    1    3    3    0    0  0.48535990092E+02 -0.45807043744E+02  0.19591365324E+03  0.20697667706E+03  0.17770000000E+01 0.  1.
</event>
<event>
 7    1  0.2279257E-006  0.4411461E+03  0.7546771E-02  0.9542077E-01
        -11   -1    0    0    0    0  0.00000000000E+00  0.00000000000E+00  0.50000000000E+03  0.50000000000E+03  0.00000000000E+00 0. -1.
         11   -1    0    0    0    0 -0.00000000000E+00 -0.00000000000E+00 -0.50000000000E+03  0.50000000000E+03  0.00000000000E+00 0. -1.
         23    2    1    2    0    0  0.18885005486E+02 -0.44216345305E+02  0.41597342203E+03  0.42891292829E+03  0.92847636434E+02 0.  0.
        -11    1    1    2    0    0  0.47647309581E+02 -0.10948057068E+03  0.34630294554E+01  0.11944979715E+03  0.00000000000E+00 0. -1.
         11    1    1    2    0    0 -0.66532315067E+02  0.15369691598E+03 -0.41943645149E+03  0.45163727456E+03  0.00000000000E+00 0. -1.
        -15    1    3    3    0    0 -0.27266961834E+02 -0.47816342236E+02  0.17272797746E+03  0.18129534389E+03  0.17770000000E+01 0.  1.
         15    1    3    3    0    0  0.46151967320E+02  0.35999969306E+01  0.24324544458E+03  0.24761758440E+03  0.17770000000E+01 0. -1.
</event>
<event>
 6    1  0.2407755E-006  0.4313449E+03  0.7546771E-02  0.9568067E-01
        -11   -1    0    0    0    0  0.00000000000E+00  0.00000000000E+00  0.50000000000E+03  0.50000000000E+03  0.00000000000E+00 0. -1.
         11   -1    0    0    0    0 -0.00000000000E+00 -0.00000000000E+00 -0.50000000000E+03  0.50000000000E+03  0.00000000000E+00 0.  1.
        -11    1    1    2    0    0  0.59234236545E+02  0.11662934905E+02 -0.27550870183E+02  0.66360901723E+02  0.00000000000E+00 0. -1.
         11    1    1    2    0    0  0.19726782644E+02 -0.84740788217E+02 -0.42115997344E+03  0.43005333433E+03  0.00000000000E+00 0.  1.
        -15    1    1    2    0    0 -0.70744548794E+02  0.97551671512E+01  0.43157744991E+03  0.43744966278E+03  0.17770000000E+01 0. -1.
         15    1    1    2    0    0 -0.82164703950E+01  0.63322686162E+02  0.17133393716E+02  0.66136101168E+02  0.17770000000E+01 0.  1.
</event>
<event>
 7    1  0.2279257E-006  0.4762053E+03  0.7546771E-02  0.9454685E-01
        -11   -1    0    0    0    0  0.00000000000E+00  0.00000000000E+00  0.50000000000E+03  0.50000000000E+03  0.00000000000E+00 0.  1.
         11   -1    0    0    0    0 -0.00000000000E+00 -0.00000000000E+00 -0.50000000000E+03  0.50000000000E+03  0.00000000000E+00 0. -1.
         23    2    1    2    0    0  0.37755789440E+01 -0.40734862011E+02  0.44951056511E+03  0.46117028088E+03  0.94576402126E+02 0.  0.
        -11    1    1    2    0    0 -0.36285367734E+02 -0.31829030094E+02  0.27287824568E+02  0.55446735142E+02  0.00000000000E+00 0.  1.
         11    1    1    2    0    0  0.32509788790E+02  0.72563892105E+02 -0.47679838968E+03  0.48338298398E+03  0.00000000000E+00 0. -1.
        -15    1    3    3    0    0 -0.24139309062E+01  0.87910065795E+01  0.40552547486E+00  0.92968295140E+01  0.17770000000E+01 0. -1.
         15    1    3    3    0    0  0.61895098503E+01 -0.49525868591E+02  0.44910503963E+03  0.45187345136E+03  0.17770000000E+01 0.  1.
</event>
<event>
 7    1  0.2279257E-006  0.5421858E+03  0.7546771E-02  0.9310068E-01
        -11   -1    0    0    0    0  0.00000000000E+00  0.00000000000E+00  0.50000000000E+03  0.50000000000E+03  0.00000000000E+00 0. -1.
         11   -1    0    0    0    0 -0.00000000000E+00 -0.00000000000E+00 -0.50000000000E+03  0.50000000000E+03  0.00000000000E+00 0. -1.
         23    2    1    2    0    0 -0.87643151039E+02 -0.13023210629E+03  0.12865363794E+03  0.22286743135E+03  0.92067420777E+02 0.  0.
        -11    1    1    2    0    0  0.72801838689E+02  0.30632978334E+01  0.31089345963E+03  0.31931839088E+03  0.00000000000E+00 0. -1.
         11    1    1    2    0    0  0.14841312349E+02  0.12716880846E+03 -0.43954709757E+03  0.45781417778E+03  0.00000000000E+00 0. -1.
        -15    1    3    3    0    0 -0.68737895617E+02 -0.58931220972E+02  0.22025892703E+02  0.93199167258E+02  0.17770000000E+01 0. -1.
         15    1    3    3    0    0 -0.18905255422E+02 -0.71300885316E+02  0.10662774523E+03  0.12966826409E+03  0.17770000000E+01 0.  1.
</event>
<event>
 7    1  0.2279257E-006  0.5272379E+03  0.7546771E-02  0.9340844E-01
        -11   -1    0    0    0    0  0.00000000000E+00  0.00000000000E+00  0.50000000000E+03  0.50000000000E+03  0.00000000000E+00 0. -1.
         11   -1    0    0    0    0 -0.00000000000E+00 -0.00000000000E+00 -0.50000000000E+03  0.50000000000E+03  0.00000000000E+00 0.  1.
         23    2    1    2    0    0  0.92104092496E+02 -0.39325925764E+02  0.39221912898E+03  0.41506571575E+03  0.91727918112E+02 0.  0.
        -11    1    1    2    0    0 -0.30676435851E+02  0.77595001226E+02  0.74970470669E+02  0.11217218641E+03  0.00000000000E+00 0. -1.
         11    1    1    2    0    0 -0.61427656645E+02 -0.38269075462E+02 -0.46718959965E+03  0.47276209784E+03  0.00000000000E+00 0.  1.
        -15    1    3    3    0    0 -0.13596836774E+02  0.11420577846E+02  0.67590256495E+02  0.69906395062E+02  0.17770000000E+01 0.  1.
         15    1    3    3    0    0  0.10570092927E+03 -0.50746503610E+02  0.32462887248E+03  0.34515932069E+03  0.17770000000E+01 0. -1.
</event>
<event>
 7    1  0.2279257E-006  0.4606600E+03  0.7546771E-02  0.9492412E-01
        -11   -1    0    0    0    0  0.00000000000E+00  0.00000000000E+00  0.50000000000E+03  0.50000000000E+03  0.00000000000E+00 0. -1.
         11   -1    0    0    0    0 -0.00000000000E+00 -0.00000000000E+00 -0.50000000000E+03  0.50000000000E+03  0.00000000000E+00 0. -1.
         23    2    1    2    0    0  0.29183985230E+02 -0.24950443734E+02  0.40852580566E+03  0.42143282224E+03  0.96114827866E+02 0.  0.
        -11    1    1    2    0    0  0.18757008438E+02 -0.16766126712E+02  0.81059872671E+02  0.84874208850E+02  0.00000000000E+00 0. -1.
         11    1    1    2    0    0 -0.47940993669E+02  0.41716570446E+02 -0.48958567833E+03  0.49369296891E+03  0.00000000000E+00 0. -1.
        -15    1    3    3    0    0 -0.32061562246E+02 -0.20465746354E+02  0.21636834766E+03  0.21969344584E+03  0.17770000000E+01 0.  1.
         15    1    3    3    0    0  0.61245547476E+02 -0.44846973796E+01  0.19215745800E+03  0.20173937640E+03  0.17770000000E+01 0. -1.
</event>
<event>
 7    1  0.2279257E-006  0.5125497E+03  0.7546771E-02  0.9372159E-01
        -11   -1    0    0    0    0  0.00000000000E+00  0.00000000000E+00  0.50000000000E+03  0.50000000000E+03  0.00000000000E+00 0.  1.
         11   -1    0    0    0    0 -0.00000000000E+00 -0.00000000000E+00 -0.50000000000E+03  0.50000000000E+03  0.00000000000E+00 0.  1.
         23    2    1    2    0    0  0.55247900427E+02 -0.51654504699E+02  0.28181854749E+03  0.30715994164E+03  0.95942783372E+02 0.  0.
        -11    1    1    2    0    0 -0.35732382801E+02 -0.22877205682E+01  0.20224466989E+03  0.20538973524E+03  0.00000000000E+00 0.  1.
         11    1    1    2    0    0 -0.19515517626E+02  0.53942225268E+02 -0.48406321737E+03  0.48745032312E+03  0.00000000000E+00 0.  1.
        -15    1    3    3    0    0  0.10330251007E+02 -0.54182415167E+02  0.62981762039E+02  0.83739526377E+02  0.17770000000E+01 0. -1.
         15    1    3    3    0    0  0.44917649420E+02  0.25279104680E+01  0.21883678545E+03  0.22342041526E+03  0.17770000000E+01 0.  1.
</event>
<event>
 7    1  0.2279257E-006  0.3767307E+03  0.7546771E-02  0.9727768E-01
        -11   -1    0    0    0    0  0.00000000000E+00  0.00000000000E+00  0.50000000000E+03  0.50000000000E+03  0.00000000000E+00 0. -1.
         11   -1    0    0    0    0 -0.00000000000E+00 -0.00000000000E+00 -0.50000000000E+03  0.50000000000E+03  0.00000000000E+00 0.  1.
         23    2    1    2    0    0 -0.16175273556E+03 -0.35374227786E+02  0.11318718802E+03  0.22030080430E+03  0.91136279218E+02 0.  0.
        -11    1    1    2    0    0  0.30417659125E+03 -0.60665204242E+02  0.23653440681E+03  0.39006690615E+03  0.00000000000E+00 0. -1.
         11    1    1    2    0    0 -0.14242385569E+03  0.96039432027E+02 -0.34972159482E+03  0.38963228955E+03  0.00000000000E+00 0.  1.
        -15    1    3    3    0    0 -0.87005122036E+02 -0.50204451545E+02  0.24602105330E+02  0.10343500148E+03  0.17770000000E+01 0.  1.
         15    1    3    3    0    0 -0.74747613525E+02  0.14830223759E+02  0.88585082687E+02  0.11686580282E+03  0.17770000000E+01 0. -1.
</event>
<event>
 7    1  0.2279257E-006  0.4305854E+03  0.7546771E-02  0.9570112E-01
        -11   -1    0    0    0    0  0.00000000000E+00  0.00000000000E+00  0.50000000000E+03  0.50000000000E+03  0.00000000000E+00 0. -1.
         11   -1    0    0    0    0 -0.00000000000E+00 -0.00000000000E+00 -0.50000000000E+03  0.50000000000E+03  0.00000000000E+00 0. -1.
         23    2    1    2    0    0 -0.57039158275E+02 -0.78796928328E+02  0.52239471873E+02  0.13177972856E+03  0.71934087516E+02 0.  0.
        -11    1    1    2    0    0  0.87433191719E+01  0.85257997138E+02  0.40217255988E+03  0.41120328260E+03  0.00000000000E+00 0. -1.
         11    1    1    2    0    0  0.48295839103E+02 -0.64610688102E+01 -0.45441203175E+03  0.45701698884E+03  0.00000000000E+00 0. -1.
        -15    1    3    3    0    0 -0.29780594991E+02 -0.76449091253E+01  0.45935212015E+02  0.55303977302E+02  0.17770000000E+01 0.  1.
         15    1    3    3    0    0 -0.27258563285E+02 -0.71152019202E+02  0.63042598581E+01  0.76475751257E+02  0.17770000000E+01 0. -1.
</event>
<event>
 7    1  0.2279257E-006  0.3335380E+03  0.7546771E-02  0.9876136E-01
        -11   -1    0    0    0    0  0.00000000000E+00  0.00000000000E+00  0.50000000000E+03  0.50000000000E+03  0.00000000000E+00 0.  1.
         11   -1    0    0    0    0 -0.00000000000E+00 -0.00000000000E+00 -0.50000000000E+03  0.50000000000E+03  0.00000000000E+00 0. -1.
         23    2    1    2    0    0  0.43288749196E+02  0.13213322321E+03  0.22650765140E+03  0.28192676404E+03  0.94041903749E+02 0.  0.
        -11    1    1    2    0    0 -0.15505060052E+03 -0.22612495365E+03  0.15120976627E+03  0.31310952844E+03  0.00000000000E+00 0.  1.
         11    1    1    2    0    0  0.11176185133E+03  0.93991730441E+02 -0.37771741766E+03  0.40496370752E+03  0.00000000000E+00 0. -1.
        -15    1    3    3    0    0 -0.38834163283E+01 -0.27304102202E+01  0.69305763310E+02  0.69490881556E+02  0.17770000000E+01 0. -1.
         15    1    3    3    0    0  0.47172165525E+02  0.13486363343E+03  0.15720188808E+03  0.21243588249E+03  0.17770000000E+01 0.  1.
</event>
<event>
 7    1  0.2279257E-006  0.5153834E+03  0.7546771E-02  0.9366031E-01
        -11   -1    0    0    0    0  0.00000000000E+00  0.00000000000E+00  0.50000000000E+03  0.50000000000E+03  0.00000000000E+00 0.  1.
         11   -1    0    0    0    0 -0.00000000000E+00 -0.00000000000E+00 -0.50000000000E+03  0.50000000000E+03  0.00000000000E+00 0. -1.
         23    2    1    2    0    0  0.26088984308E+02 -0.44399460980E+02  0.30223943351E+03  0.31879625193E+03  0.87352320168E+02 0.  0.
        -11    1    1    2    0    0 -0.88639792508E+02 -0.10910550636E+02  0.17512984410E+03  0.19658716953E+03  0.00000000000E+00 0.  1.
         11    1    1    2    0    0  0.62550808200E+02  0.55310011616E+02 -0.47736927761E+03  0.48461657854E+03  0.00000000000E+00 0. -1.
        -15    1    3    3    0    0  0.34405415976E+02 -0.15493182880E+02  0.40706434714E+02  0.55533259587E+02  0.17770000000E+01 0. -1.
         15    1    3    3    0    0 -0.83164316680E+01 -0.28906278101E+02  0.26153299879E+03  0.26326299234E+03  0.17770000000E+01 0.  1.
</event>
<event>
 7    1  0.2279257E-006  0.3871164E+03  0.7546771E-02  0.9695253E-01
        -11   -1    0    0    0    0  0.00000000000E+00  0.00000000000E+00  0.50000000000E+03  0.50000000000E+03  0.00000000000E+00 0.  1.
         11   -1    0    0    0    0 -0.00000000000E+00 -0.00000000000E+00 -0.50000000000E+03  0.50000000000E+03  0.00000000000E+00 0. -1.
         23    2    1    2    0    0  0.15229902567E+02 -0.61050849367E+01  0.18730227116E+03  0.20326431410E+03  0.77233532952E+02 0.  0.
        -11    1    1    2    0    0 -0.27010369924E+03 -0.10942414744E+03  0.17424417434E+03  0.33954481983E+03  0.00000000000E+00 0.  1.
         11    1    1    2    0    0  0.25487379667E+03  0.11552923237E+03 -0.36154644550E+03  0.45719086607E+03  0.00000000000E+00 0. -1.
        -15    1    3    3    0    0 -0.31470566045E+02  0.17410835334E+01  0.75070019745E+02  0.81437666301E+02  0.17770000000E+01 0. -1.
         15    1    3    3    0    0  0.46700468612E+02 -0.78461684701E+01  0.11223225141E+03  0.12182664780E+03  0.17770000000E+01 0.  1.
</event>
<event>
 7    1  0.2279257E-006  0.5110853E+03  0.7546771E-02  0.9375342E-01
        -11   -1    0    0    0    0  0.00000000000E+00  0.00000000000E+00  0.50000000000E+03  0.50000000000E+03  0.00000000000E+00 0. -1.
         11   -1    0    0    0    0 -0.00000000000E+00 -0.00000000000E+00 -0.50000000000E+03  0.50000000000E+03  0.00000000000E+00 0.  1.
         23    2    1    2    0    0  0.29509728476E+02 -0.49620565922E+02  0.34368763272E+03  0.36164758529E+03  0.96616574293E+02 0.  0.
        -11    1    1    2    0    0 -0.44493378508E+02  0.17718446238E+01  0.14264929307E+03  0.14943768259E+03  0.00000000000E+00 0. -1.
         11    1    1    2    0    0  0.14983650032E+02  0.47848721298E+02 -0.48633692579E+03  0.48891473212E+03  0.00000000000E+00 0.  1.
        -15    1    3    3    0    0 -0.25318312181E+02  0.11821988911E+02  0.12148723082E+03  0.12467189473E+03  0.17770000000E+01 0. -1.
         15    1    3    3    0    0  0.54828040657E+02 -0.61442554833E+02  0.22220040190E+03  0.23697569057E+03  0.17770000000E+01 0.  1.
</event>
<event>
 7    1  0.2279257E-006  0.4086654E+03  0.7546771E-02  0.9631138E-01
        -11   -1    0    0    0    0  0.00000000000E+00  0.00000000000E+00  0.50000000000E+03  0.50000000000E+03  0.00000000000E+00 0.  1.
         11   -1    0    0    0    0 -0.00000000000E+00 -0.00000000000E+00 -0.50000000000E+03  0.50000000000E+03  0.00000000000E+00 0.  1.
         23    2    1    2    0    0 -0.57719273023E+02  0.96264564536E+02  0.36219550751E+03  0.38972728070E+03  0.90018813580E+02 0.  0.
        -11    1    1    2    0    0  0.10937508888E+03  0.13545499484E+03  0.36602218851E+01  0.17413891845E+03  0.00000000000E+00 0.  1.
         11    1    1    2    0    0 -0.51655815855E+02 -0.23171955938E+03 -0.36585572939E+03  0.43613380085E+03  0.00000000000E+00 0.  1.
        -15    1    3    3    0    0  0.23466071113E+02  0.29403728464E+02  0.76149627497E+02  0.84953865351E+02  0.17770000000E+01 0. -1.
         15    1    3    3    0    0 -0.81185344137E+02  0.66860836072E+02  0.28604588001E+03  0.30477341535E+03  0.17770000000E+01 0.  1.
</event>
<event>
 7    1  0.2279257E-006  0.4616803E+03  0.7546771E-02  0.9489887E-01
        -11   -1    0    0    0    0  0.00000000000E+00  0.00000000000E+00  0.50000000000E+03  0.50000000000E+03  0.00000000000E+00 0.  1.
         11   -1    0    0    0    0 -0.00000000000E+00 -0.00000000000E+00 -0.50000000000E+03  0.50000000000E+03  0.00000000000E+00 0. -1.
         23    2    1    2    0    0  0.10209999457E+02  0.65155496315E+02  0.41261498665E+03  0.42764772255E+03  0.91005299876E+02 0.  0.
        -11    1    1    2    0    0 -0.22508457110E+02  0.44479223539E+02  0.65139472747E+02  0.82025501387E+02  0.00000000000E+00 0.  1.
         11    1    1    2    0    0  0.12298457653E+02 -0.10963471985E+03 -0.47775445939E+03  0.49032677607E+03  0.00000000000E+00 0. -1.
        -15    1    3    3    0    0  0.15191401669E+01 -0.18902122816E+02  0.28061708212E+02  0.33914823169E+02  0.17770000000E+01 0. -1.
         15    1    3    3    0    0  0.86908592903E+01  0.84057619131E+02  0.38455327843E+03  0.39373289938E+03  0.17770000000E+01 0.  1.
</event>
<event>
 7    1  0.2279257E-006  0.5048058E+03  0.7546771E-02  0.9389120E-01
        -11   -1    0    0    0    0  0.00000000000E+00  0.00000000000E+00  0.50000000000E+03  0.50000000000E+03  0.00000000000E+00 0. -1.
         11   -1    0    0    0    0 -0.00000000000E+00 -0.00000000000E+00 -0.50000000000E+03  0.50000000000E+03  0.00000000000E+00 0. -1.
         23    2    1    2    0    0  0.47482545850E+01  0.24605179229E+02  0.48627923648E+03  0.49519422883E+03  0.90121405162E+02 0.  0.
        -11    1    1    2    0    0  0.61113841899E+02  0.20915702355E+01 -0.17066437108E+03  0.18128873074E+03  0.00000000000E+00 0. -1.
         11    1    1    2    0    0 -0.65862096484E+02 -0.26696749465E+02 -0.31561486540E+03  0.32351704042E+03  0.00000000000E+00 0. -1.
        -15    1    3    3    0    0 -0.20457261096E+02  0.83003983709E+01  0.26958067999E+02  0.34889701975E+02  0.17770000000E+01 0.  1.
         15    1    3    3    0    0  0.25205515681E+02  0.16304780859E+02  0.45932116848E+03  0.46030452686E+03  0.17770000000E+01 0. -1.
</event>
<event>
 7    1  0.2279257E-006  0.4495921E+03  0.7546771E-02  0.9520251E-01
        -11   -1    0    0    0    0  0.00000000000E+00  0.00000000000E+00  0.50000000000E+03  0.50000000000E+03  0.00000000000E+00 0.  1.
         11   -1    0    0    0    0 -0.00000000000E+00 -0.00000000000E+00 -0.50000000000E+03  0.50000000000E+03  0.00000000000E+00 0.  1.
         23    2    1    2    0    0 -0.40226859218E+02 -0.66239730764E+00  0.41066027261E+03  0.42267721102E+03  0.91627104320E+02 0.  0.
        -11    1    1    2    0    0 -0.29287904841E+02  0.86953526568E+02  0.49330446171E+02  0.10417384543E+03  0.00000000000E+00 0.  1.
         11    1    1    2    0    0  0.69514764058E+02 -0.86291129261E+02 -0.45999071878E+03  0.47314894354E+03  0.00000000000E+00 0.  1.
        -15    1    3    3    0    0  0.14267927524E+02 -0.71670141688E+01  0.11498634162E+02  0.19756420843E+02  0.17770000000E+01 0. -1.
         15    1    3    3    0    0 -0.54494786742E+02  0.65046168611E+01  0.39916163845E+03  0.40292079018E+03  0.17770000000E+01 0.  1.
</event>
<event>
 7    1  0.2279257E-006  0.5372007E+03  0.7546771E-02  0.9320214E-01
        -11   -1    0    0    0    0  0.00000000000E+00  0.00000000000E+00  0.50000000000E+03  0.50000000000E+03  0.00000000000E+00 0.  1.
         11   -1    0    0    0    0 -0.00000000000E+00 -0.00000000000E+00 -0.50000000000E+03  0.50000000000E+03  0.00000000000E+00 0.  1.
         23    2    1    2    0    0 -0.35035293445E+02 -0.93128292812E+02  0.19648725841E+03  0.23882380109E+03  0.92353746756E+02 0.  0.
        -11    1    1    2    0    0  0.20743021161E+01  0.14170115779E+03  0.26257424915E+03  0.29837687103E+03  0.00000000000E+00 0.  1.
         11    1    1    2    0    0  0.32960991329E+02 -0.48572864975E+02 -0.45906150756E+03  0.46279932788E+03  0.00000000000E+00 0.  1.
        -15    1    3    3    0    0 -0.48072443836E+02 -0.83218632093E+02  0.20007352879E+03  0.22196593260E+03  0.17770000000E+01 0.  1.
         15    1    3    3    0    0  0.13037150391E+02 -0.99096607194E+01 -0.35862703751E+01  0.16857868492E+02  0.17770000000E+01 0. -1.
</event>
<event>
 7    1  0.2279257E-006  0.5215613E+03  0.7546771E-02  0.9352816E-01
        -11   -1    0    0    0    0  0.00000000000E+00  0.00000000000E+00  0.50000000000E+03  0.50000000000E+03  0.00000000000E+00 0.  1.
         11   -1    0    0    0    0 -0.00000000000E+00 -0.00000000000E+00 -0.50000000000E+03  0.50000000000E+03  0.00000000000E+00 0.  1.
         23    2    1    2    0    0 -0.22384303625E+02 -0.10874152908E+02  0.46938655606E+03  0.47843867022E+03  0.89221734468E+02 0.  0.
        -11    1    1    2    0    0 -0.10213096470E+03  0.11521871550E+02 -0.21940415362E+03  0.24228427539E+03  0.00000000000E+00 0.  1.
         11    1    1    2    0    0  0.12451526832E+03 -0.64771864193E+00 -0.24998240244E+03  0.27927705440E+03  0.00000000000E+00 0.  1.
        -15    1    3    3    0    0  0.20794780223E+02  0.27696833722E+02  0.18090017637E+03  0.18419437836E+03  0.17770000000E+01 0. -1.
         15    1    3    3    0    0 -0.43179083848E+02 -0.38570986630E+02  0.28848637969E+03  0.29424429185E+03  0.17770000000E+01 0.  1.
</event>
<event>
 6    1  0.2279257E-006  0.3322034E+03  0.7546771E-02  0.9881099E-01
        -11   -1    0    0    0    0  0.00000000000E+00  0.00000000000E+00  0.50000000000E+03  0.50000000000E+03  0.00000000000E+00 0.  1.
         11   -1    0    0    0    0 -0.00000000000E+00 -0.00000000000E+00 -0.50000000000E+03  0.50000000000E+03  0.00000000000E+00 0. -1.
        -11    1    1    2    0    0 -0.75733569312E+01  0.17647699778E+03  0.30045136647E+03  0.34852906636E+03  0.00000000000E+00 0.  1.
         11    1    1    2    0    0  0.11925743178E+03  0.35697357123E+02 -0.33644390328E+03  0.35873546855E+03  0.00000000000E+00 0. -1.
        -15    1    1    2    0    0 -0.70891347164E+02 -0.13854486578E+03 -0.58414341899E+02  0.16623975458E+03  0.17770000000E+01 0.  1.
         15    1    1    2    0    0 -0.40792727686E+02 -0.73629489128E+02  0.94406878705E+02  0.12649571051E+03  0.17770000000E+01 0. -1.
</event>
<event>
 7    1  0.2279257E-006  0.4505491E+03  0.7546771E-02  0.9517811E-01
        -11   -1    0    0    0    0  0.00000000000E+00  0.00000000000E+00  0.50000000000E+03  0.50000000000E+03  0.00000000000E+00 0. -1.
         11   -1    0    0    0    0 -0.00000000000E+00 -0.00000000000E+00 -0.50000000000E+03  0.50000000000E+03  0.00000000000E+00 0.  1.
         23    2    1    2    0    0 -0.63637784901E+02  0.10467771252E+03  0.41492460725E+03  0.44167931940E+03  0.88943804274E+02 0.  0.
        -11    1    1    2    0    0  0.98039084337E+02  0.13556915386E+02  0.24508043515E+02  0.10196124857E+03  0.00000000000E+00 0. -1.
         11    1    1    2    0    0 -0.34401299436E+02 -0.11823462791E+03 -0.43943265077E+03  0.45635943203E+03  0.00000000000E+00 0.  1.
        -15    1    3    3    0    0  0.13640001890E+02  0.58937156274E+02  0.14213194904E+03  0.15448070012E+03  0.17770000000E+01 0.  1.
         15    1    3    3    0    0 -0.77277786791E+02  0.45740556250E+02  0.27279265821E+03  0.28719861929E+03  0.17770000000E+01 0. -1.
</event>
<event>
 7    1  0.2279257E-006  0.5397245E+03  0.7546771E-02  0.9315063E-01
        -11   -1    0    0    0    0  0.00000000000E+00  0.00000000000E+00  0.50000000000E+03  0.50000000000E+03  0.00000000000E+00 0.  1.
         11   -1    0    0    0    0 -0.00000000000E+00 -0.00000000000E+00 -0.50000000000E+03  0.50000000000E+03  0.00000000000E+00 0. -1.
         23    2    1    2    0    0 -0.26329148521E+02 -0.34003602218E+01  0.14570892233E+02  0.97318364272E+02  0.92486575310E+02 0.  0.
        -11    1    1    2    0    0 -0.86355658347E+02  0.15997059522E+03  0.40333029456E+03  0.44240616810E+03  0.00000000000E+00 0.  1.
         11    1    1    2    0    0  0.11268480687E+03 -0.15657023499E+03 -0.41790118679E+03  0.46027546763E+03  0.00000000000E+00 0. -1.
        -15    1    3    3    0    0 -0.41885571569E+02  0.89885221581E+01  0.44206897040E+02  0.61584105995E+02  0.17770000000E+01 0.  1.
         15    1    3    3    0    0  0.15556423048E+02 -0.12388882380E+02 -0.29636004807E+02  0.35734258277E+02  0.17770000000E+01 0. -1.
</event>
<event>
 7    1  0.2279257E-006  0.4788572E+03  0.7546771E-02  0.9448402E-01
        -11   -1    0    0    0    0  0.00000000000E+00  0.00000000000E+00  0.50000000000E+03  0.50000000000E+03  0.00000000000E+00 0.  1.
         11   -1    0    0    0    0 -0.00000000000E+00 -0.00000000000E+00 -0.50000000000E+03  0.50000000000E+03  0.00000000000E+00 0. -1.
         23    2    1    2    0    0 -0.25703304626E+02 -0.13968516167E+02  0.45006941232E+03  0.46020491615E+03  0.91489396280E+02 0.  0.
        -11    1    1    2    0    0 -0.68541845147E+01 -0.33101385172E+02  0.36570966049E+02  0.49800774125E+02  0.00000000000E+00 0.  1.
         11    1    1    2    0    0  0.32557489140E+02  0.47069901339E+02 -0.48664037836E+03  0.48999430973E+03  0.00000000000E+00 0. -1.
        -15    1    3    3    0    0  0.26942825398E+02  0.84094947622E+01  0.64727247190E+02  0.70635753697E+02  0.17770000000E+01 0. -1.
         15    1    3    3    0    0 -0.52646130023E+02 -0.22378010930E+02  0.38534216512E+03  0.38956916245E+03  0.17770000000E+01 0.  1.
</event>
<event>
 7    1  0.2279257E-006  0.4759683E+03  0.7546771E-02  0.9455248E-01
        -11   -1    0    0    0    0  0.00000000000E+00  0.00000000000E+00  0.50000000000E+03  0.50000000000E+03  0.00000000000E+00 0.  1.
         11   -1    0    0    0    0 -0.00000000000E+00 -0.00000000000E+00 -0.50000000000E+03  0.50000000000E+03  0.00000000000E+00 0. -1.
         23    2    1    2    0    0 -0.23422158712E+03  0.27988128340E+03  0.26203916802E+03  0.45850487470E+03  0.91481746111E+02 0.  0.
        -11    1    1    2    0    0 -0.54712560457E+02  0.75711200875E+01  0.30226459316E+01  0.55316566411E+02  0.00000000000E+00 0.  1.
         11    1    1    2    0    0  0.28893414758E+03 -0.28745240349E+03 -0.26506181395E+03  0.48617855889E+03  0.00000000000E+00 0. -1.
        -15    1    3    3    0    0 -0.22264350035E+03  0.28321560444E+03  0.26336033503E+03  0.44625444607E+03  0.17770000000E+01 0.  1.
         15    1    3    3    0    0 -0.11578086777E+02 -0.33343210411E+01 -0.13211670057E+01  0.12250428624E+02  0.17770000000E+01 0. -1.
</event>
<event>
 7    1  0.2279257E-006  0.3548842E+03  0.7546771E-02  0.9799982E-01
        -11   -1    0    0    0    0  0.00000000000E+00  0.00000000000E+00  0.50000000000E+03  0.50000000000E+03  0.00000000000E+00 0.  1.
         11   -1    0    0    0    0 -0.00000000000E+00 -0.00000000000E+00 -0.50000000000E+03  0.50000000000E+03  0.00000000000E+00 0. -1.
         23    2    1    2    0    0  0.31543871808E+02  0.42761203264E+02  0.23118246413E+03  0.25164185122E+03  0.83992578285E+02 0.  0.
        -11    1    1    2    0    0 -0.14797863464E+03 -0.27040874394E+03  0.10530534211E+03  0.32574189197E+03  0.00000000000E+00 0.  1.
         11    1    1    2    0    0  0.11643476283E+03  0.22764754068E+03 -0.33648780624E+03  0.42261625681E+03  0.00000000000E+00 0. -1.
        -15    1    3    3    0    0 -0.86669781369E+01  0.26157179126E+02  0.15617142490E+02  0.31723294255E+02  0.17770000000E+01 0.  1.
         15    1    3    3    0    0  0.40210849945E+02  0.16604024137E+02  0.21556532164E+03  0.21991855696E+03  0.17770000000E+01 0.  1.
</event>
<event>
 7    1  0.2279257E-006  0.5285588E+03  0.7546771E-02  0.9338081E-01
        -11   -1    0    0    0    0  0.00000000000E+00  0.00000000000E+00  0.50000000000E+03  0.50000000000E+03  0.00000000000E+00 0.  1.
         11   -1    0    0    0    0 -0.00000000000E+00 -0.00000000000E+00 -0.50000000000E+03  0.50000000000E+03  0.00000000000E+00 0. -1.
         23    2    1    2    0    0 -0.15171769594E+02 -0.28725057605E+02 -0.12864297790E+03  0.16143781959E+03  0.91966528168E+02 0.  0.
        -11    1    1    2    0    0 -0.19007804966E+03 -0.25506348952E+01  0.43141704195E+03  0.47144123153E+03  0.00000000000E+00 0.  1.
         11    1    1    2    0    0  0.20524981925E+03  0.31275692500E+02 -0.30277406405E+03  0.36712094888E+03  0.00000000000E+00 0. -1.
        -15    1    3    3    0    0  0.27052738575E+02  0.17324011879E+02 -0.63346194425E+02  0.71048364719E+02  0.17770000000E+01 0. -1.
         15    1    3    3    0    0 -0.42224508170E+02 -0.46049069484E+02 -0.65296783479E+02  0.90389454873E+02  0.17770000000E+01 0.  1.
</event>
<event>
 7    1  0.2279257E-006  0.4294581E+03  0.7546771E-02  0.9573155E-01
        -11   -1    0    0    0    0  0.00000000000E+00  0.00000000000E+00  0.50000000000E+03  0.50000000000E+03  0.00000000000E+00 0.  1.
         11   -1    0    0    0    0 -0.00000000000E+00 -0.00000000000E+00 -0.50000000000E+03  0.50000000000E+03  0.00000000000E+00 0. -1.
         23    2    1    2    0    0  0.38380054906E+02  0.92633733895E+02  0.15377473816E+02  0.13511415764E+03  0.89248706570E+02 0.  0.
        -11    1    1    2    0    0 -0.43711993923E+00 -0.14606196687E+03  0.40961140682E+03  0.43487445756E+03  0.00000000000E+00 0.  1.
         11    1    1    2    0    0 -0.37942934967E+02  0.53428232972E+02 -0.42498888064E+03  0.43001138480E+03  0.00000000000E+00 0. -1.
        -15    1    3    3    0    0  0.32372300977E+02  0.25405357088E+02 -0.32395764664E+02  0.52402684440E+02  0.17770000000E+01 0. -1.
         15    1    3    3    0    0  0.60077539290E+01  0.67228376807E+02  0.47773238480E+02  0.82711473202E+02  0.17770000000E+01 0.  1.
</event>
<event>
 7    1  0.2279257E-006  0.5207870E+03  0.7546771E-02  0.9354462E-01
        -11   -1    0    0    0    0  0.00000000000E+00  0.00000000000E+00  0.50000000000E+03  0.50000000000E+03  0.00000000000E+00 0.  1.
         11   -1    0    0    0    0 -0.00000000000E+00 -0.00000000000E+00 -0.50000000000E+03  0.50000000000E+03  0.00000000000E+00 0. -1.
         23    2    1    2    0    0  0.25177965170E+01  0.82058612102E-01  0.21942081567E+03  0.23687199286E+03  0.89199218737E+02 0.  0.
        -11    1    1    2    0    0 -0.16397203052E+03 -0.15229060301E+01  0.23177268004E+03  0.28391498948E+03  0.00000000000E+00 0.  1.
         11    1    1    2    0    0  0.16145423401E+03  0.14408474180E+01 -0.45119349571E+03  0.47921301766E+03  0.00000000000E+00 0. -1.
        -15    1    3    3    0    0  0.31020016044E+02 -0.31092706422E+02  0.81254364512E+02  0.92381963983E+02  0.17770000000E+01 0. -1.
         15    1    3    3    0    0 -0.28502219527E+02  0.31174765034E+02  0.13816645115E+03  0.14449002888E+03  0.17770000000E+01 0.  1.
</event>
<event>
 7    1  0.2279257E-006  0.3557923E+03  0.7546771E-02  0.9796870E-01
        -11   -1    0    0    0    0  0.00000000000E+00  0.00000000000E+00  0.50000000000E+03  0.50000000000E+03  0.00000000000E+00 0.  1.
         11   -1    0    0    0    0 -0.00000000000E+00 -0.00000000000E+00 -0.50000000000E+03  0.50000000000E+03  0.00000000000E+00 0. -1.
         23    2    1    2    0    0  0.11752423661E+02  0.28250227929E+01  0.27898341367E+03  0.29322494943E+03  0.89459631377E+02 0.  0.
        -11    1    1    2    0    0 -0.71076286736E+02  0.21839252177E+03  0.11055695295E+03  0.25489207902E+03  0.00000000000E+00 0.  1.
         11    1    1    2    0    0  0.59323863074E+02 -0.22121754457E+03 -0.38954036662E+03  0.45188297155E+03  0.00000000000E+00 0. -1.
        -15    1    3    3    0    0  0.20973008266E+02 -0.38424186729E+02  0.18568285753E+03  0.19078146270E+03  0.17770000000E+01 0. -1.
         15    1    3    3    0    0 -0.92205846042E+01  0.41249209522E+02  0.93300556140E+02  0.10244348672E+03  0.17770000000E+01 0.  1.
</event>
<event>
 7    1  0.2279257E-006  0.5114384E+03  0.7546771E-02  0.9374573E-01
        -11   -1    0    0    0    0  0.00000000000E+00  0.00000000000E+00  0.50000000000E+03  0.50000000000E+03  0.00000000000E+00 0.  1.
         11   -1    0    0    0    0 -0.00000000000E+00 -0.00000000000E+00 -0.50000000000E+03  0.50000000000E+03  0.00000000000E+00 0.  1.
         23    2    1    2    0    0  0.57900044289E+01 -0.63362009812E+02  0.39405882101E+03  0.40953855227E+03  0.91603509414E+02 0.  0.
        -11    1    1    2    0    0 -0.28616359964E+02 -0.58220025484E+02  0.78581861977E+02  0.10189983541E+03  0.00000000000E+00 0.  1.
         11    1    1    2    0    0  0.22826355535E+02  0.12158203530E+03 -0.47264068299E+03  0.48856161232E+03  0.00000000000E+00 0.  1.
        -15    1    3    3    0    0 -0.64578802266E+01 -0.20224527444E+02  0.11220602652E+02  0.24078940596E+02  0.17770000000E+01 0.  1.
         15    1    3    3    0    0  0.12247884655E+02 -0.43137482368E+02  0.38283821836E+03  0.38545961167E+03  0.17770000000E+01 0. -1.
</event>
<event>
 6    1  0.2279257E-006  0.4776036E+03  0.7546771E-02  0.9451367E-01
        -11   -1    0    0    0    0  0.00000000000E+00  0.00000000000E+00  0.50000000000E+03  0.50000000000E+03  0.00000000000E+00 0. -1.
         11   -1    0    0    0    0 -0.00000000000E+00 -0.00000000000E+00 -0.50000000000E+03  0.50000000000E+03  0.00000000000E+00 0.  1.
        -11    1    1    2    0    0  0.58540955249E+02 -0.13481288531E+02  0.36843791558E+02  0.70471650742E+02  0.00000000000E+00 0. -1.
         11    1    1    2    0    0  0.51062280279E+01  0.18929861861E+02 -0.46596672753E+03  0.46637903512E+03  0.00000000000E+00 0.  1.
        -15    1    1    2    0    0 -0.17763853520E+01 -0.44421338290E+02  0.22234321014E+02  0.49738652981E+02  0.17770000000E+01 0.  1.
         15    1    1    2    0    0 -0.61870797925E+02  0.38972764960E+02  0.40688861496E+03  0.41341066116E+03  0.17770000000E+01 0. -1.
</event>
<event>
 7    1  0.2279257E-006  0.4325168E+03  0.7546771E-02  0.9564921E-01
        -11   -1    0    0    0    0  0.00000000000E+00  0.00000000000E+00  0.50000000000E+03  0.50000000000E+03  0.00000000000E+00 0.  1.
         11   -1    0    0    0    0 -0.00000000000E+00 -0.00000000000E+00 -0.50000000000E+03  0.50000000000E+03  0.00000000000E+00 0. -1.
         23    2    1    2    0    0  0.29645543579E+02  0.67128880416E+00  0.44535614810E+03  0.45557470755E+03  0.91251885577E+02 0.  0.
        -11    1    1    2    0    0  0.87744603533E+02  0.81263674072E+02 -0.60955120066E+02  0.13423273384E+03  0.00000000000E+00 0.  1.
         11    1    1    2    0    0 -0.11739014711E+03 -0.81934962876E+02 -0.38440102804E+03  0.41019255861E+03  0.00000000000E+00 0. -1.
        -15    1    3    3    0    0 -0.25064465038E+02 -0.18773151641E+02  0.85741187238E+02  0.91298234091E+02  0.17770000000E+01 0. -1.
         15    1    3    3    0    0  0.54710008617E+02  0.19444440446E+02  0.35961496087E+03  0.36427647346E+03  0.17770000000E+01 0.  1.
</event>
<event>
 7    1  0.2279257E-006  0.4824198E+03  0.7546771E-02  0.9440029E-01
        -11   -1    0    0    0    0  0.00000000000E+00  0.00000000000E+00  0.50000000000E+03  0.50000000000E+03  0.00000000000E+00 0.  1.
         11   -1    0    0    0    0 -0.00000000000E+00 -0.00000000000E+00 -0.50000000000E+03  0.50000000000E+03  0.00000000000E+00 0.  1.
         23    2    1    2    0    0  0.13773115054E+02 -0.55613741705E+01  0.47339441027E+03  0.48262750687E+03  0.92770766610E+02 0.  0.
        -11    1    1    2    0    0  0.42633449175E+02 -0.63449651736E+01 -0.27286645341E+01  0.43189294759E+02  0.00000000000E+00 0.  1.
         11    1    1    2    0    0 -0.56406564229E+02  0.11906339344E+02 -0.47066574573E+03  0.47418319837E+03  0.00000000000E+00 0.  1.
        -15    1    3    3    0    0 -0.33984026837E+02  0.86591056510E+01  0.10143609592E+03  0.10734213280E+03  0.17770000000E+01 0. -1.
         15    1    3    3    0    0  0.47757141891E+02 -0.14220479821E+02  0.37195831435E+03  0.37528537407E+03  0.17770000000E+01 0.  1.
</event>
<event>
 7    1  0.2279257E-006  0.5160228E+03  0.7546771E-02  0.9364654E-01
        -11   -1    0    0    0    0  0.00000000000E+00  0.00000000000E+00  0.50000000000E+03  0.50000000000E+03  0.00000000000E+00 0.  1.
         11   -1    0    0    0    0 -0.00000000000E+00 -0.00000000000E+00 -0.50000000000E+03  0.50000000000E+03  0.00000000000E+00 0. -1.
         23    2    1    2    0    0 -0.38048219409E+02  0.59131256178E+02  0.21999905125E+03  0.24979110576E+03  0.95141166202E+02 0.  0.
        -11    1    1    2    0    0  0.50830950133E+02 -0.88121891266E+01  0.26118548337E+03  0.26623166020E+03  0.00000000000E+00 0.  1.
         11    1    1    2    0    0 -0.12782730724E+02 -0.50319067052E+02 -0.48118453462E+03  0.48397723404E+03  0.00000000000E+00 0. -1.
        -15    1    3    3    0    0 -0.28439663422E+02 -0.22009912043E+02  0.79003304022E+02  0.86821255802E+02  0.17770000000E+01 0.  1.
         15    1    3    3    0    0 -0.96085559870E+01  0.81141168221E+02  0.14099574723E+03  0.16296984995E+03  0.17770000000E+01 0. -1.
</event>
<event>
 7    1  0.2279257E-006  0.3819929E+03  0.7546771E-02  0.9711155E-01
        -11   -1    0    0    0    0  0.00000000000E+00  0.00000000000E+00  0.50000000000E+03  0.50000000000E+03  0.00000000000E+00 0.  1.
         11   -1    0    0    0    0 -0.00000000000E+00 -0.00000000000E+00 -0.50000000000E+03  0.50000000000E+03  0.00000000000E+00 0. -1.
         23    2    1    2    0    0 -0.30604818831E+03 -0.19432763277E+03  0.73518868275E+02  0.37839538036E+03  0.79682604499E+02 0.  0.
        -11    1    1    2    0    0  0.17055028019E+03  0.36047482555E+03 -0.81645712211E+02  0.40705714617E+03  0.00000000000E+00 0.  1.
         11    1    1    2    0    0  0.13549790813E+03 -0.16614719278E+03  0.81268439353E+01  0.21454747346E+03  0.00000000000E+00 0. -1.
        -15    1    3    3    0    0 -0.13568649672E+03 -0.40486085240E+02  0.30185811750E+02  0.14479050194E+03  0.17770000000E+01 0. -1.
         15    1    3    3    0    0 -0.17036169159E+03 -0.15384154753E+03  0.43333056526E+02  0.23360487843E+03  0.17770000000E+01 0.  1.
</event>
<event>
 7    1  0.2279257E-006  0.5398071E+03  0.7546771E-02  0.9314895E-01
        -11   -1    0    0    0    0  0.00000000000E+00  0.00000000000E+00  0.50000000000E+03  0.50000000000E+03  0.00000000000E+00 0. -1.
         11   -1    0    0    0    0 -0.00000000000E+00 -0.00000000000E+00 -0.50000000000E+03  0.50000000000E+03  0.00000000000E+00 0. -1.
         23    2    1    2    0    0 -0.53661820555E+02  0.26644114002E+02  0.24430777738E+03  0.27725080327E+03  0.11658566818E+03 0.  0.
        -11    1    1    2    0    0  0.10538334609E+03 -0.13281987842E+03  0.20047204678E+03  0.26255630116E+03  0.00000000000E+00 0. -1.
         11    1    1    2    0    0 -0.51721525539E+02  0.10617576442E+03 -0.44477982416E+03  0.46019289557E+03  0.00000000000E+00 0. -1.
        -15    1    3    3    0    0  0.35831279633E+02 -0.37318485421E+00  0.89155996367E+02  0.96103950409E+02  0.17770000000E+01 0. -1.
         15    1    3    3    0    0 -0.89493100188E+02  0.27017298856E+02  0.15515178102E+03  0.18114685286E+03  0.17770000000E+01 0.  1.
</event>
<event>
 7    1  0.2279257E-006  0.4955363E+03  0.7546771E-02  0.9409853E-01
        -11   -1    0    0    0    0  0.00000000000E+00  0.00000000000E+00  0.50000000000E+03  0.50000000000E+03  0.00000000000E+00 0.  1.
         11   -1    0    0    0    0 -0.00000000000E+00 -0.00000000000E+00 -0.50000000000E+03  0.50000000000E+03  0.00000000000E+00 0. -1.
         23    2    1    2    0    0  0.24883917100E+02  0.28939761884E+02  0.47483373861E+03  0.48732645252E+03  0.10277778386E+03 0.  0.
        -11    1    1    2    0    0 -0.70847440336E+01  0.72208180940E+01  0.16681232935E+02  0.19508904229E+02  0.00000000000E+00 0.  1.
         11    1    1    2    0    0 -0.17799173067E+02 -0.36160579978E+02 -0.49151497154E+03  0.49316464325E+03  0.00000000000E+00 0. -1.
        -15    1    3    3    0    0 -0.21438077468E+02  0.36832422828E+02  0.36974108111E+03  0.37219328759E+03  0.17770000000E+01 0.  1.
         15    1    3    3    0    0  0.46321994568E+02 -0.78926609438E+01  0.10509265750E+03  0.11513316493E+03  0.17770000000E+01 0. -1.
</event>
<event>
 7    1  0.2279257E-006  0.3108604E+03  0.7546771E-02  0.9964049E-01
        -11   -1    0    0    0    0  0.00000000000E+00  0.00000000000E+00  0.50000000000E+03  0.50000000000E+03  0.00000000000E+00 0.  1.
         11   -1    0    0    0    0 -0.00000000000E+00 -0.00000000000E+00 -0.50000000000E+03  0.50000000000E+03  0.00000000000E+00 0.  1.
         23    2    1    2    0    0 -0.17891550496E+02 -0.48171312069E+02  0.29281892294E+03  0.31085536585E+03  0.90816044634E+02 0.  0.
        -11    1    1    2    0    0  0.21392036674E+03  0.25401542652E+03 -0.10440360265E+03  0.34811761297E+03  0.00000000000E+00 0.  1.
         11    1    1    2    0    0 -0.19602881625E+03 -0.20584411445E+03 -0.18841532029E+03  0.34102702117E+03  0.00000000000E+00 0.  1.
        -15    1    3    3    0    0 -0.43860473944E+02 -0.60730793387E+02  0.22446745816E+03  0.23664481389E+03  0.17770000000E+01 0. -1.
         15    1    3    3    0    0  0.25968923448E+02  0.12559481318E+02  0.68351464777E+02  0.74210551960E+02  0.17770000000E+01 0.  1.
</event>
<event>
 7    1  0.2279257E-006  0.4486613E+03  0.7546771E-02  0.9522632E-01
        -11   -1    0    0    0    0  0.00000000000E+00  0.00000000000E+00  0.50000000000E+03  0.50000000000E+03  0.00000000000E+00 0. -1.
         11   -1    0    0    0    0 -0.00000000000E+00 -0.00000000000E+00 -0.50000000000E+03  0.50000000000E+03  0.00000000000E+00 0. -1.
         23    2    1    2    0    0  0.14681939071E+03 -0.40072049770E+02  0.39921219594E+03  0.43617871967E+03  0.87862366515E+02 0.  0.
        -11    1    1    2    0    0 -0.80914349309E+02 -0.49101253698E+02  0.45840086024E+02  0.10516357984E+03  0.00000000000E+00 0. -1.
         11    1    1    2    0    0 -0.65905041399E+02  0.89173303467E+02 -0.44505228196E+03  0.45865770048E+03  0.00000000000E+00 0. -1.
        -15    1    3    3    0    0 -0.56256374987E+01 -0.14655467245E+02  0.79651112939E+02  0.81202758813E+02  0.17770000000E+01 0.  1.
         15    1    3    3    0    0  0.15244502821E+03 -0.25416582525E+02  0.31956108300E+03  0.35497596086E+03  0.17770000000E+01 0. -1.
</event>
<event>
 7    1  0.2279257E-006  0.3669106E+03  0.7546771E-02  0.9759562E-01
        -11   -1    0    0    0    0  0.00000000000E+00  0.00000000000E+00  0.50000000000E+03  0.50000000000E+03  0.00000000000E+00 0.  1.
         11   -1    0    0    0    0 -0.00000000000E+00 -0.00000000000E+00 -0.50000000000E+03  0.50000000000E+03  0.00000000000E+00 0. -1.
         23    2    1    2    0    0  0.75058738251E+02  0.82628899826E+02  0.29177248443E+03  0.32524822470E+03  0.90520029440E+02 0.  0.
        -11    1    1    2    0    0  0.21208490576E+03 -0.10442210495E+03  0.35249204510E+02  0.23901148439E+03  0.00000000000E+00 0.  1.
         11    1    1    2    0    0 -0.28714364401E+03  0.21793205124E+02 -0.32702168894E+03  0.43574029091E+03  0.00000000000E+00 0. -1.
        -15    1    3    3    0    0  0.20582477538E+01  0.41846513859E+02  0.33202889972E+02  0.53487912068E+02  0.17770000000E+01 0. -1.
         15    1    3    3    0    0  0.73000490497E+02  0.40782385967E+02  0.25856959445E+03  0.27176031263E+03  0.17770000000E+01 0.  1.
</event>
<event>
 7    1  0.2279257E-006  0.5137125E+03  0.7546771E-02  0.9369639E-01
        -11   -1    0    0    0    0  0.00000000000E+00  0.00000000000E+00  0.50000000000E+03  0.50000000000E+03  0.00000000000E+00 0.  1.
         11   -1    0    0    0    0 -0.00000000000E+00 -0.00000000000E+00 -0.50000000000E+03  0.50000000000E+03  0.00000000000E+00 0. -1.
         23    2    1    2    0    0  0.16383295057E+03  0.12664011595E+03 -0.13016209366E+03  0.26042862149E+03  0.89453572364E+02 0.  0.
        -11    1    1    2    0    0 -0.38958332306E+03 -0.16908606953E+03  0.23687597965E+03  0.48628746051E+03  0.00000000000E+00 0.  1.
         11    1    1    2    0    0  0.22575037248E+03  0.42445953586E+02 -0.10671388599E+03  0.25328391800E+03  0.00000000000E+00 0. -1.
        -15    1    3    3    0    0  0.12391590432E+03  0.84567429147E+02 -0.43637889979E+02  0.15625051868E+03  0.17770000000E+01 0.  1.
         15    1    3    3    0    0  0.39917046253E+02  0.42072686799E+02 -0.86524203676E+02  0.10417810282E+03  0.17770000000E+01 0. -1.
</event>
<event>
 7    1  0.2279257E-006  0.5094457E+03  0.7546771E-02  0.9378919E-01
        -11   -1    0    0    0    0  0.00000000000E+00  0.00000000000E+00  0.50000000000E+03  0.50000000000E+03  0.00000000000E+00 0. -1.
         11   -1    0    0    0    0 -0.00000000000E+00 -0.00000000000E+00 -0.50000000000E+03  0.50000000000E+03  0.00000000000E+00 0.  1.
         23    2    1    2    0    0  0.17536862259E+01 -0.28551390338E+01  0.31626583971E+03  0.32901641969E+03  0.90644888536E+02 0.  0.
        -11    1    1    2    0    0  0.54470850323E+02  0.21070047367E+02  0.17071523967E+03  0.18042924787E+03  0.00000000000E+00 0. -1.
         11    1    1    2    0    0 -0.56224536549E+02 -0.18214908333E+02 -0.48698107939E+03  0.49055433244E+03  0.00000000000E+00 0.  1.
        -15    1    3    3    0    0 -0.36577391848E+02  0.23735167976E+02  0.13776751765E+03  0.14451404929E+03  0.17770000000E+01 0. -1.
         15    1    3    3    0    0  0.38331078074E+02 -0.26590307010E+02  0.17849832206E+03  0.18450237039E+03  0.17770000000E+01 0.  1.
</event>
<event>
 7    1  0.2279257E-006  0.4464243E+03  0.7546771E-02  0.9528377E-01
        -11   -1    0    0    0    0  0.00000000000E+00  0.00000000000E+00  0.50000000000E+03  0.50000000000E+03  0.00000000000E+00 0.  1.
         11   -1    0    0    0    0 -0.00000000000E+00 -0.00000000000E+00 -0.50000000000E+03  0.50000000000E+03  0.00000000000E+00 0. -1.
         23    2    1    2    0    0 -0.36857105213E+02  0.30705729638E+02 -0.30195629294E+02  0.10535388585E+03  0.88805276864E+02 0.  0.
        -11    1    1    2    0    0  0.60817629976E+01 -0.34481921337E+02  0.46120034134E+03  0.46252756199E+03  0.00000000000E+00 0.  1.
         11    1    1    2    0    0  0.30775342216E+02  0.37761916991E+01 -0.43100471205E+03  0.43211855216E+03  0.00000000000E+00 0. -1.
        -15    1    3    3    0    0  0.25226904636E+02  0.51432680559E+01  0.93071468765E+01  0.27434114453E+02  0.17770000000E+01 0.  1.
         15    1    3    3    0    0 -0.62084009849E+02  0.25562461582E+02 -0.39502776171E+02  0.77919771402E+02  0.17770000000E+01 0. -1.
</event>
<event>
 7    1  0.2279257E-006  0.5346608E+03  0.7546771E-02  0.9325428E-01
        -11   -1    0    0    0    0  0.00000000000E+00  0.00000000000E+00  0.50000000000E+03  0.50000000000E+03  0.00000000000E+00 0.  1.
         11   -1    0    0    0    0 -0.00000000000E+00 -0.00000000000E+00 -0.50000000000E+03  0.50000000000E+03  0.00000000000E+00 0.  1.
         23    2    1    2    0    0 -0.50777467844E+02  0.51717209127E+02  0.22929809475E+03  0.25659855170E+03  0.89510778765E+02 0.  0.
        -11    1    1    2    0    0  0.15606451373E+03 -0.52905460990E+02  0.22397204832E+03  0.27806222088E+03  0.00000000000E+00 0.  1.
         11    1    1    2    0    0 -0.10528704589E+03  0.11882518637E+01 -0.45327014308E+03  0.46533922742E+03  0.00000000000E+00 0.  1.
        -15    1    3    3    0    0 -0.71437197160E+02  0.51464141994E+02  0.14380586266E+03  0.16862714761E+03  0.17770000000E+01 0. -1.
         15    1    3    3    0    0  0.20659729316E+02  0.25306713288E+00  0.85492232097E+02  0.87971404083E+02  0.17770000000E+01 0.  1.
</event>
<event>
 7    1  0.2279257E-006  0.4293833E+03  0.7546771E-02  0.9573357E-01
        -11   -1    0    0    0    0  0.00000000000E+00  0.00000000000E+00  0.50000000000E+03  0.50000000000E+03  0.00000000000E+00 0.  1.
         11   -1    0    0    0    0 -0.00000000000E+00 -0.00000000000E+00 -0.50000000000E+03  0.50000000000E+03  0.00000000000E+00 0.  1.
         23    2    1    2    0    0 -0.76735625208E+02  0.83513426726E+02  0.36611557605E+03  0.39712213871E+03  0.10393521739E+03 0.  0.
        -11    1    1    2    0    0 -0.28825841825E+01 -0.11256093710E+03  0.86756229510E+02  0.14214400167E+03  0.00000000000E+00 0.  1.
         11    1    1    2    0    0  0.79618209390E+02  0.29047510378E+02 -0.45287180556E+03  0.46073385961E+03  0.00000000000E+00 0.  1.
        -15    1    3    3    0    0 -0.96058640199E+02  0.91390078045E+02  0.30723021459E+03  0.33462362620E+03  0.17770000000E+01 0.  1.
         15    1    3    3    0    0  0.19323014991E+02 -0.78766513183E+01  0.58885361452E+02  0.62498512516E+02  0.17770000000E+01 0. -1.
</event>
<event>
 7    1  0.2279257E-006  0.5160965E+03  0.7546771E-02  0.9364496E-01
        -11   -1    0    0    0    0  0.00000000000E+00  0.00000000000E+00  0.50000000000E+03  0.50000000000E+03  0.00000000000E+00 0.  1.
         11   -1    0    0    0    0 -0.00000000000E+00 -0.00000000000E+00 -0.50000000000E+03  0.50000000000E+03  0.00000000000E+00 0.  1.
         23    2    1    2    0    0  0.46236431033E+02  0.60247678425E+01  0.33324349636E+03  0.34839544105E+03  0.90299779043E+02 0.  0.
        -11    1    1    2    0    0  0.44228588271E+02 -0.89513519713E+02  0.13473975373E+03  0.16770104194E+03  0.00000000000E+00 0.  1.
         11    1    1    2    0    0 -0.90465019304E+02  0.83488751870E+02 -0.46798325009E+03  0.48390351701E+03  0.00000000000E+00 0.  1.
        -15    1    3    3    0    0  0.58352404382E+02 -0.27593701181E+02  0.18684567562E+03  0.19768884559E+03  0.17770000000E+01 0.  1.
         15    1    3    3    0    0 -0.12115973349E+02  0.33618469024E+02  0.14639782074E+03  0.15070659546E+03  0.17770000000E+01 0. -1.
</event>
<event>
 7    1  0.2279257E-006  0.3298429E+03  0.7546771E-02  0.9889940E-01
        -11   -1    0    0    0    0  0.00000000000E+00  0.00000000000E+00  0.50000000000E+03  0.50000000000E+03  0.00000000000E+00 0.  1.
         11   -1    0    0    0    0 -0.00000000000E+00 -0.00000000000E+00 -0.50000000000E+03  0.50000000000E+03  0.00000000000E+00 0.  1.
         23    2    1    2    0    0  0.24921178466E+02 -0.19764873970E+03  0.18343636758E+03  0.28689395921E+03  0.94726730315E+02 0.  0.
        -11    1    1    2    0    0 -0.28250660996E+03  0.29301930202E+03 -0.57971437456E+02  0.41113377821E+03  0.00000000000E+00 0.  1.
         11    1    1    2    0    0  0.25758543150E+03 -0.95370562314E+02 -0.12546493013E+03  0.30197226258E+03  0.00000000000E+00 0.  1.
        -15    1    3    3    0    0 -0.71954816742E+01 -0.18633586541E+03  0.15419314298E+03  0.24197419855E+03  0.17770000000E+01 0.  1.
         15    1    3    3    0    0  0.32116660140E+02 -0.11312874296E+02  0.29243224600E+02  0.44919760656E+02  0.17770000000E+01 0. -1.
</event>
<event>
 7    1  0.2279257E-006  0.5293859E+03  0.7546771E-02  0.9336355E-01
        -11   -1    0    0    0    0  0.00000000000E+00  0.00000000000E+00  0.50000000000E+03  0.50000000000E+03  0.00000000000E+00 0.  1.
         11   -1    0    0    0    0 -0.00000000000E+00 -0.00000000000E+00 -0.50000000000E+03  0.50000000000E+03  0.00000000000E+00 0. -1.
         23    2    1    2    0    0  0.35563786989E+02  0.61249866449E+02  0.19236551585E+03  0.22675525221E+03  0.96938762283E+02 0.  0.
        -11    1    1    2    0    0  0.24207286565E+03  0.99433550353E+02  0.15198362786E+03  0.30263067650E+03  0.00000000000E+00 0.  1.
         11    1    1    2    0    0 -0.27763665264E+03 -0.16068341680E+03 -0.34434914371E+03  0.47061407129E+03  0.00000000000E+00 0. -1.
        -15    1    3    3    0    0  0.49756081962E+02 -0.54124986479E+01  0.10121106301E+03  0.11292386745E+03  0.17770000000E+01 0.  1.
         15    1    3    3    0    0 -0.14192294972E+02  0.66662365097E+02  0.91154452834E+02  0.11383138476E+03  0.17770000000E+01 0. -1.
</event>
<event>
 7    1  0.2279257E-006  0.3624648E+03  0.7546771E-02  0.9774308E-01
        -11   -1    0    0    0    0  0.00000000000E+00  0.00000000000E+00  0.50000000000E+03  0.50000000000E+03  0.00000000000E+00 0.  1.
         11   -1    0    0    0    0 -0.00000000000E+00 -0.00000000000E+00 -0.50000000000E+03  0.50000000000E+03  0.00000000000E+00 0. -1.
         23    2    1    2    0    0  0.11062749449E+03 -0.13993373692E+03 -0.13165659899E+03  0.24192592212E+03  0.96823542958E+02 0.  0.
        -11    1    1    2    0    0 -0.18207058840E+03 -0.27380564346E+02  0.39626935871E+03  0.43695400114E+03  0.00000000000E+00 0.  1.
         11    1    1    2    0    0  0.71443093911E+02  0.16731430127E+03 -0.26461275972E+03  0.32112007673E+03  0.00000000000E+00 0. -1.
        -15    1    3    3    0    0  0.43369804204E+02 -0.44448936750E+01 -0.60909707210E+02  0.74925610828E+02  0.17770000000E+01 0.  1.
         15    1    3    3    0    0  0.67257690286E+02 -0.13548884325E+03 -0.70746891783E+02  0.16700031130E+03  0.17770000000E+01 0. -1.
</event>
<event>
 7    1  0.2279257E-006  0.4319868E+03  0.7546771E-02  0.9566342E-01
        -11   -1    0    0    0    0  0.00000000000E+00  0.00000000000E+00  0.50000000000E+03  0.50000000000E+03  0.00000000000E+00 0.  1.
         11   -1    0    0    0    0 -0.00000000000E+00 -0.00000000000E+00 -0.50000000000E+03  0.50000000000E+03  0.00000000000E+00 0. -1.
         23    2    1    2    0    0 -0.23969613676E+02 -0.52888118453E+02  0.79335229427E+02  0.13045058523E+03  0.85741361688E+02 0.  0.
        -11    1    1    2    0    0 -0.97592624136E+02  0.21769639390E+03  0.33271826595E+03  0.40941114384E+03  0.00000000000E+00 0.  1.
         11    1    1    2    0    0  0.12156223781E+03 -0.16480827545E+03 -0.41205349538E+03  0.46013827093E+03  0.00000000000E+00 0. -1.
        -15    1    3    3    0    0  0.19789339062E+00 -0.18861039608E+02 -0.16995843246E+02  0.25451805310E+02  0.17770000000E+01 0. -1.
         15    1    3    3    0    0 -0.24167507067E+02 -0.34027078846E+02  0.96331072673E+02  0.10499877992E+03  0.17770000000E+01 0.  1.
</event>
<event>
 7    1  0.2279257E-006  0.3624272E+03  0.7546771E-02  0.9774433E-01
        -11   -1    0    0    0    0  0.00000000000E+00  0.00000000000E+00  0.50000000000E+03  0.50000000000E+03  0.00000000000E+00 0.  1.
         11   -1    0    0    0    0 -0.00000000000E+00 -0.00000000000E+00 -0.50000000000E+03  0.50000000000E+03  0.00000000000E+00 0.  1.
         23    2    1    2    0    0 -0.84523467076E+01  0.10483462687E+03  0.27599587490E+03  0.30873239867E+03  0.89890098842E+02 0.  0.
        -11    1    1    2    0    0  0.19199659263E+03 -0.81110680151E+02  0.12960652799E+03  0.24543733643E+03  0.00000000000E+00 0.  1.
         11    1    1    2    0    0 -0.18354424593E+03 -0.23723946722E+02 -0.40560240290E+03  0.44583026489E+03  0.00000000000E+00 0.  1.
        -15    1    3    3    0    0 -0.39720714242E+02  0.35271426254E+02  0.17015689155E+03  0.17826478654E+03  0.17770000000E+01 0.  1.
         15    1    3    3    0    0  0.31268367534E+02  0.69563200619E+02  0.10583898335E+03  0.13046761213E+03  0.17770000000E+01 0. -1.
</event>
<event>
 7    1  0.2279257E-006  0.5193586E+03  0.7546771E-02  0.9357506E-01
        -11   -1    0    0    0    0  0.00000000000E+00  0.00000000000E+00  0.50000000000E+03  0.50000000000E+03  0.00000000000E+00 0.  1.
         11   -1    0    0    0    0 -0.00000000000E+00 -0.00000000000E+00 -0.50000000000E+03  0.50000000000E+03  0.00000000000E+00 0. -1.
         23    2    1    2    0    0 -0.36658414303E+02 -0.80268128525E+01 -0.83010252016E+02  0.12865529510E+03  0.90847201139E+02 0.  0.
        -11    1    1    2    0    0  0.14713045692E+03 -0.51165089019E+01  0.45753967920E+03  0.48064135076E+03  0.00000000000E+00 0.  1.
         11    1    1    2    0    0 -0.11047204262E+03  0.13143321754E+02 -0.37452942718E+03  0.39070335414E+03  0.00000000000E+00 0. -1.
        -15    1    3    3    0    0 -0.53911614749E+02 -0.29205947302E+01 -0.11943296102E+02  0.55324426153E+02  0.17770000000E+01 0. -1.
         15    1    3    3    0    0  0.17253200446E+02 -0.51062181222E+01 -0.71066955914E+02  0.73330868951E+02  0.17770000000E+01 0.  1.
</event>
<event>
 7    1  0.2279257E-006  0.4844979E+03  0.7546771E-02  0.9435181E-01
        -11   -1    0    0    0    0  0.00000000000E+00  0.00000000000E+00  0.50000000000E+03  0.50000000000E+03  0.00000000000E+00 0. -1.
         11   -1    0    0    0    0 -0.00000000000E+00 -0.00000000000E+00 -0.50000000000E+03  0.50000000000E+03  0.00000000000E+00 0. -1.
         23    2    1    2    0    0 -0.20729761359E+02  0.14898516840E+02  0.46875373206E+03  0.47803176734E+03  0.90181042675E+02 0.  0.
        -11    1    1    2    0    0 -0.37040864532E+02 -0.25107902047E+01  0.10897120271E+02  0.38692078555E+02  0.00000000000E+00 0. -1.
         11    1    1    2    0    0  0.57770625891E+02 -0.12387726635E+02 -0.47965085233E+03  0.48327615410E+03  0.00000000000E+00 0. -1.
        -15    1    3    3    0    0 -0.31405593692E+02  0.17391231850E+02  0.46488308838E+03  0.46627053290E+03  0.17770000000E+01 0. -1.
         15    1    3    3    0    0  0.10675832333E+02 -0.24927150102E+01  0.38706436816E+01  0.11761234443E+02  0.17770000000E+01 0.  1.
</event>
<event>
 7    1  0.2279257E-006  0.4729235E+03  0.7546771E-02  0.9462521E-01
        -11   -1    0    0    0    0  0.00000000000E+00  0.00000000000E+00  0.50000000000E+03  0.50000000000E+03  0.00000000000E+00 0.  1.
         11   -1    0    0    0    0 -0.00000000000E+00 -0.00000000000E+00 -0.50000000000E+03  0.50000000000E+03  0.00000000000E+00 0. -1.
         23    2    1    2    0    0 -0.84782575938E+02 -0.97796266562E+02  0.43526778348E+03  0.46284622139E+03  0.89534274915E+02 0.  0.
        -11    1    1    2    0    0 -0.56266847909E+02 -0.22596251362E+02  0.35727985996E+01  0.60739720439E+02  0.00000000000E+00 0.  1.
         11    1    1    2    0    0  0.14104942385E+03  0.12039251792E+03 -0.43884058208E+03  0.47641405817E+03  0.00000000000E+00 0. -1.
        -15    1    3    3    0    0 -0.33551732788E+02 -0.51996952803E+02  0.80882105248E+02  0.10185516458E+03  0.17770000000E+01 0. -1.
         15    1    3    3    0    0 -0.51230843151E+02 -0.45799313759E+02  0.35438567823E+03  0.36099105681E+03  0.17770000000E+01 0.  1.
</event>
<event>
 7    1  0.2279257E-006  0.5167940E+03  0.7546771E-02  0.9362997E-01
        -11   -1    0    0    0    0  0.00000000000E+00  0.00000000000E+00  0.50000000000E+03  0.50000000000E+03  0.00000000000E+00 0. -1.
         11   -1    0    0    0    0 -0.00000000000E+00 -0.00000000000E+00 -0.50000000000E+03  0.50000000000E+03  0.00000000000E+00 0. -1.
         23    2    1    2    0    0  0.36889180535E+02 -0.69737910861E+02  0.24462209377E+03  0.27204218068E+03  0.89122339834E+02 0.  0.
        -11    1    1    2    0    0  0.31158279218E+02  0.65525350238E+02  0.23374996688E+03  0.24475182717E+03  0.00000000000E+00 0. -1.
         11    1    1    2    0    0 -0.68047459753E+02  0.42125606234E+01 -0.47837206064E+03  0.48320599215E+03  0.00000000000E+00 0. -1.
        -15    1    3    3    0    0  0.51654863010E+02 -0.62473781674E+02  0.24207826673E+03  0.25529638309E+03  0.17770000000E+01 0. -1.
         15    1    3    3    0    0 -0.14765682475E+02 -0.72641291874E+01  0.25438270399E+01  0.16745797586E+02  0.17770000000E+01 0.  1.
</event>
<event>
 7    1  0.2279257E-006  0.5250801E+03  0.7546771E-02  0.9345376E-01
        -11   -1    0    0    0    0  0.00000000000E+00  0.00000000000E+00  0.50000000000E+03  0.50000000000E+03  0.00000000000E+00 0. -1.
         11   -1    0    0    0    0 -0.00000000000E+00 -0.00000000000E+00 -0.50000000000E+03  0.50000000000E+03  0.00000000000E+00 0.  1.
         23    2    1    2    0    0 -0.12604135328E+02 -0.19637982120E+02 -0.64508520709E+02  0.11637414066E+03  0.94005727495E+02 0.  0.
        -11    1    1    2    0    0  0.10907984303E+03  0.23812976465E+03  0.39616247600E+03  0.47491989257E+03  0.00000000000E+00 0. -1.
         11    1    1    2    0    0 -0.96475707705E+02 -0.21849178253E+03 -0.33165395529E+03  0.40870596677E+03  0.00000000000E+00 0.  1.
        -15    1    3    3    0    0  0.19243433009E+02  0.31248261230E+02 -0.22500602273E+02  0.43083620733E+02  0.17770000000E+01 0. -1.
         15    1    3    3    0    0 -0.31847568337E+02 -0.50886243350E+02 -0.42007918436E+02  0.73290519930E+02  0.17770000000E+01 0.  1.
</event>
<event>
 7    1  0.2279257E-006  0.3794019E+03  0.7546771E-02  0.9719299E-01
        -11   -1    0    0    0    0  0.00000000000E+00  0.00000000000E+00  0.50000000000E+03  0.50000000000E+03  0.00000000000E+00 0.  1.
         11   -1    0    0    0    0 -0.00000000000E+00 -0.00000000000E+00 -0.50000000000E+03  0.50000000000E+03  0.00000000000E+00 0. -1.
         23    2    1    2    0    0 -0.51081906194E+02 -0.16247920374E+03  0.10127420872E+03  0.21574977452E+03  0.85338426674E+02 0.  0.
        -11    1    1    2    0    0  0.19969024528E+02  0.79945016386E+02  0.33200824193E+03  0.34208104346E+03  0.00000000000E+00 0.  1.
         11    1    1    2    0    0  0.31112881666E+02  0.82534187350E+02 -0.43328245065E+03  0.44216918202E+03  0.00000000000E+00 0. -1.
        -15    1    3    3    0    0 -0.17003433556E+02 -0.14031032225E+03  0.10319668995E+03  0.17501090774E+03  0.17770000000E+01 0.  1.
         15    1    3    3    0    0 -0.34078472638E+02 -0.22168881490E+02 -0.19224812273E+01  0.40738866785E+02  0.17770000000E+01 0. -1.
</event>
<event>
 7    1  0.2279257E-006  0.5167641E+03  0.7546771E-02  0.9363061E-01
        -11   -1    0    0    0    0  0.00000000000E+00  0.00000000000E+00  0.50000000000E+03  0.50000000000E+03  0.00000000000E+00 0.  1.
         11   -1    0    0    0    0 -0.00000000000E+00 -0.00000000000E+00 -0.50000000000E+03  0.50000000000E+03  0.00000000000E+00 0.  1.
         23    2    1    2    0    0  0.15933709751E+01 -0.16563818214E+03 -0.19745853728E+03  0.27311182906E+03  0.90341856402E+02 0.  0.
        -11    1    1    2    0    0 -0.12808904696E+03  0.30273989112E+03  0.35420154693E+03  0.48323594804E+03  0.00000000000E+00 0.  1.
         11    1    1    2    0    0  0.12649567598E+03 -0.13710170898E+03 -0.15674300965E+03  0.24365222290E+03  0.00000000000E+00 0.  1.
        -15    1    3    3    0    0 -0.58972044354E+00 -0.34266356214E+02 -0.11009133912E+03  0.11531605099E+03  0.17770000000E+01 0.  1.
         15    1    3    3    0    0  0.21830914186E+01 -0.13137182592E+03 -0.87367198160E+02  0.15779577807E+03  0.17770000000E+01 0. -1.
</event>
<event>
 7    1  0.2279257E-006  0.5020896E+03  0.7546771E-02  0.9395146E-01
        -11   -1    0    0    0    0  0.00000000000E+00  0.00000000000E+00  0.50000000000E+03  0.50000000000E+03  0.00000000000E+00 0.  1.
         11   -1    0    0    0    0 -0.00000000000E+00 -0.00000000000E+00 -0.50000000000E+03  0.50000000000E+03  0.00000000000E+00 0. -1.
         23    2    1    2    0    0  0.99469141679E+02  0.69231970120E+02  0.47419051706E+03  0.49791037314E+03  0.91492717615E+02 0.  0.
        -11    1    1    2    0    0 -0.57921733625E+02 -0.49758037245E+02 -0.10376529742E+03  0.12883332816E+03  0.00000000000E+00 0.  1.
         11    1    1    2    0    0 -0.41547408054E+02 -0.19473932875E+02 -0.37042521964E+03  0.37325629870E+03  0.00000000000E+00 0. -1.
        -15    1    3    3    0    0 -0.87585762102E+01 -0.30325443823E+01  0.43769482522E+01  0.10403095100E+02  0.17770000000E+01 0. -1.
         15    1    3    3    0    0  0.10822771789E+03  0.72264514502E+02  0.46981356880E+03  0.48750727804E+03  0.17770000000E+01 0.  1.
</event>
<event>
 7    1  0.2279257E-006  0.4109600E+03  0.7546771E-02  0.9624561E-01
        -11   -1    0    0    0    0  0.00000000000E+00  0.00000000000E+00  0.50000000000E+03  0.50000000000E+03  0.00000000000E+00 0.  1.
         11   -1    0    0    0    0 -0.00000000000E+00 -0.00000000000E+00 -0.50000000000E+03  0.50000000000E+03  0.00000000000E+00 0. -1.
         23    2    1    2    0    0 -0.17536089168E+01 -0.68023445208E+02  0.37007409958E+03  0.38705168356E+03  0.90685733851E+02 0.  0.
        -11    1    1    2    0    0  0.16704213497E+03 -0.50574937921E+01  0.33782622525E+02  0.17049902840E+03  0.00000000000E+00 0.  1.
         11    1    1    2    0    0 -0.16528852606E+03  0.73080939000E+02 -0.40385672211E+03  0.44244928804E+03  0.00000000000E+00 0. -1.
        -15    1    3    3    0    0 -0.36649588575E+02 -0.37792295771E+01  0.83337362649E+02  0.91135880208E+02  0.17770000000E+01 0. -1.
         15    1    3    3    0    0  0.34895979659E+02 -0.64244215631E+02  0.28673673694E+03  0.29591580336E+03  0.17770000000E+01 0.  1.
</event>
<event>
 7    1  0.2279257E-006  0.5210654E+03  0.7546771E-02  0.9353870E-01
        -11   -1    0    0    0    0  0.00000000000E+00  0.00000000000E+00  0.50000000000E+03  0.50000000000E+03  0.00000000000E+00 0.  1.
         11   -1    0    0    0    0 -0.00000000000E+00 -0.00000000000E+00 -0.50000000000E+03  0.50000000000E+03  0.00000000000E+00 0. -1.
         23    2    1    2    0    0  0.39790608837E+02  0.73092153144E+02 -0.56172660726E+02  0.13646744344E+03  0.92424238717E+02 0.  0.
        -11    1    1    2    0    0 -0.24403889580E+03 -0.23121028084E+03  0.34112336393E+03  0.47893457387E+03  0.00000000000E+00 0.  1.
         11    1    1    2    0    0  0.20424828696E+03  0.15811812770E+03 -0.28495070320E+03  0.38459798269E+03  0.00000000000E+00 0. -1.
        -15    1    3    3    0    0  0.33996926132E+02  0.95358457407E+02 -0.44371037082E+02  0.11054850992E+03  0.17770000000E+01 0.  1.
         15    1    3    3    0    0  0.57936827053E+01 -0.22266304264E+02 -0.11801623644E+02  0.25918933514E+02  0.17770000000E+01 0. -1.
</event>
<event>
 7    1  0.2279257E-006  0.4657823E+03  0.7546771E-02  0.9479807E-01
        -11   -1    0    0    0    0  0.00000000000E+00  0.00000000000E+00  0.50000000000E+03  0.50000000000E+03  0.00000000000E+00 0.  1.
         11   -1    0    0    0    0 -0.00000000000E+00 -0.00000000000E+00 -0.50000000000E+03  0.50000000000E+03  0.00000000000E+00 0.  1.
         23    2    1    2    0    0  0.21878941082E+02 -0.46668985541E+01  0.42224227344E+03  0.43297817972E+03  0.93172413476E+02 0.  0.
        -11    1    1    2    0    0  0.32516343449E+02 -0.92350913321E+01  0.66747965474E+02  0.74819051037E+02  0.00000000000E+00 0.  1.
         11    1    1    2    0    0 -0.54395284532E+02  0.13901989886E+02 -0.48899023891E+03  0.49220276924E+03  0.00000000000E+00 0.  1.
        -15    1    3    3    0    0  0.32271349584E+02  0.37195123354E+02  0.16726012996E+03  0.17436750273E+03  0.17770000000E+01 0.  1.
         15    1    3    3    0    0 -0.10392408501E+02 -0.41862021908E+02  0.25498214347E+03  0.25861067699E+03  0.17770000000E+01 0. -1.
</event>
<event>
 7    1  0.2279257E-006  0.5221991E+03  0.7546771E-02  0.9351463E-01
        -11   -1    0    0    0    0  0.00000000000E+00  0.00000000000E+00  0.50000000000E+03  0.50000000000E+03  0.00000000000E+00 0.  1.
         11   -1    0    0    0    0 -0.00000000000E+00 -0.00000000000E+00 -0.50000000000E+03  0.50000000000E+03  0.00000000000E+00 0. -1.
         23    2    1    2    0    0 -0.84854091446E+02  0.92498141519E+01  0.37673878651E+03  0.39683749455E+03  0.90896138107E+02 0.  0.
        -11    1    1    2    0    0  0.46760457829E+02 -0.65340862925E+02  0.96226677877E+02  0.12536164613E+03  0.00000000000E+00 0.  1.
         11    1    1    2    0    0  0.38093633617E+02  0.56091048773E+02 -0.47296546438E+03  0.47780085933E+03  0.00000000000E+00 0. -1.
        -15    1    3    3    0    0  0.14701507933E+02 -0.15050497087E+02  0.86270243151E+02  0.88816464580E+02  0.17770000000E+01 0. -1.
         15    1    3    3    0    0 -0.99555599379E+02  0.24300311239E+02  0.29046854336E+03  0.30802102997E+03  0.17770000000E+01 0.  1.
</event>
<event>
 7    1  0.2279257E-006  0.5128096E+03  0.7546771E-02  0.9371595E-01
        -11   -1    0    0    0    0  0.00000000000E+00  0.00000000000E+00  0.50000000000E+03  0.50000000000E+03  0.00000000000E+00 0.  1.
         11   -1    0    0    0    0 -0.00000000000E+00 -0.00000000000E+00 -0.50000000000E+03  0.50000000000E+03  0.00000000000E+00 0. -1.
         23    2    1    2    0    0  0.30245589630E+03  0.12816012392E+03  0.34841833606E+03  0.48719044611E+03  0.89747464038E+02 0.  0.
        -11    1    1    2    0    0 -0.86790536498E+02 -0.56285235732E+02 -0.83810618509E+01  0.10378278848E+03  0.00000000000E+00 0.  1.
         11    1    1    2    0    0 -0.21566535981E+03 -0.71874888184E+02 -0.34003727421E+03  0.40902676541E+03  0.00000000000E+00 0. -1.
        -15    1    3    3    0    0  0.16808677541E+02  0.32855844399E+02  0.58422634365E+02  0.69125972593E+02  0.17770000000E+01 0. -1.
         15    1    3    3    0    0  0.28564721876E+03  0.95304279517E+02  0.28999570170E+03  0.41806447351E+03  0.17770000000E+01 0.  1.
</event>
<event>
 7    1  0.2279257E-006  0.5136647E+03  0.7546771E-02  0.9369743E-01
        -11   -1    0    0    0    0  0.00000000000E+00  0.00000000000E+00  0.50000000000E+03  0.50000000000E+03  0.00000000000E+00 0.  1.
         11   -1    0    0    0    0 -0.00000000000E+00 -0.00000000000E+00 -0.50000000000E+03  0.50000000000E+03  0.00000000000E+00 0.  1.
         23    2    1    2    0    0 -0.12339086351E+02 -0.10687909620E+02  0.20609813269E+03  0.22640126940E+03  0.92274644542E+02 0.  0.
        -11    1    1    2    0    0  0.84190803141E+02 -0.84711566226E+01  0.27451848469E+03  0.28726338135E+03  0.00000000000E+00 0.  1.
         11    1    1    2    0    0 -0.71851716791E+02  0.19159066243E+02 -0.48061661738E+03  0.48633534925E+03  0.00000000000E+00 0.  1.
        -15    1    3    3    0    0 -0.39029611074E+02 -0.31216740639E+02  0.68997836900E+02  0.85215342883E+02  0.17770000000E+01 0. -1.
         15    1    3    3    0    0  0.26690524723E+02  0.20528831019E+02  0.13710029579E+03  0.14118592652E+03  0.17770000000E+01 0.  1.
</event>
<event>
 7    1  0.2279257E-006  0.5300074E+03  0.7546771E-02  0.9335061E-01
        -11   -1    0    0    0    0  0.00000000000E+00  0.00000000000E+00  0.50000000000E+03  0.50000000000E+03  0.00000000000E+00 0. -1.
         11   -1    0    0    0    0 -0.00000000000E+00 -0.00000000000E+00 -0.50000000000E+03  0.50000000000E+03  0.00000000000E+00 0.  1.
         23    2    1    2    0    0 -0.14590158548E+02  0.24069349842E+02 -0.45529117306E+02  0.10650644996E+03  0.92078863118E+02 0.  0.
        -11    1    1    2    0    0  0.21117305733E+03 -0.19717763011E+00  0.41987967576E+03  0.46999259689E+03  0.00000000000E+00 0. -1.
         11    1    1    2    0    0 -0.19658289878E+03 -0.23872172211E+02 -0.37435055845E+03  0.42350095314E+03  0.00000000000E+00 0.  1.
        -15    1    3    3    0    0  0.23779747791E+02 -0.90586174338E+01  0.13350466673E+02  0.28791103560E+02  0.17770000000E+01 0.  1.
         15    1    3    3    0    0 -0.38369906339E+02  0.33127967275E+02 -0.58879583979E+02  0.77715346404E+02  0.17770000000E+01 0. -1.
</event>
<event>
 7    1  0.2602259E-006  0.5113617E+03  0.7546771E-02  0.9374740E-01
        -11   -1    0    0    0    0  0.00000000000E+00  0.00000000000E+00  0.50000000000E+03  0.50000000000E+03  0.00000000000E+00 0.  1.
         11   -1    0    0    0    0 -0.00000000000E+00 -0.00000000000E+00 -0.50000000000E+03  0.50000000000E+03  0.00000000000E+00 0.  1.
         23    2    1    2    0    0  0.10841394385E+02  0.58708662863E+02 -0.25881853348E+03  0.28082483359E+03  0.91166391611E+02 0.  0.
        -11    1    1    2    0    0 -0.27815135693E+02 -0.29959836593E+02  0.48692517345E+03  0.48863831013E+03  0.00000000000E+00 0.  1.
         11    1    1    2    0    0  0.16973741308E+02 -0.28748826270E+02 -0.22810663997E+03  0.23053685628E+03  0.00000000000E+00 0.  1.
        -15    1    3    3    0    0 -0.40469512566E+01  0.69495376458E+02 -0.10557553931E+03  0.12647267449E+03  0.17770000000E+01 0.  1.
         15    1    3    3    0    0  0.14888345642E+02 -0.10786713595E+02 -0.15324299418E+03  0.15435215910E+03  0.17770000000E+01 0. -1.
</event>
<event>
 7    1  0.2279257E-006  0.4596515E+03  0.7546771E-02  0.9494914E-01
        -11   -1    0    0    0    0  0.00000000000E+00  0.00000000000E+00  0.50000000000E+03  0.50000000000E+03  0.00000000000E+00 0. -1.
         11   -1    0    0    0    0 -0.00000000000E+00 -0.00000000000E+00 -0.50000000000E+03  0.50000000000E+03  0.00000000000E+00 0.  1.
         23    2    1    2    0    0  0.64419585770E+01 -0.88977677566E+02  0.41954289772E+03  0.43842818659E+03  0.90799261224E+02 0.  0.
        -11    1    1    2    0    0 -0.58381419064E+02  0.37138309828E+02  0.50610052819E+02  0.85726434635E+02  0.00000000000E+00 0. -1.
         11    1    1    2    0    0  0.51939460487E+02  0.51839367737E+02 -0.47015295054E+03  0.47584537877E+03  0.00000000000E+00 0.  1.
        -15    1    3    3    0    0 -0.14235077118E+02 -0.32293722224E+02  0.32048462637E+03  0.32242685277E+03  0.17770000000E+01 0.  1.
         15    1    3    3    0    0  0.20677035695E+02 -0.56683955342E+02  0.99058271344E+02  0.11600133382E+03  0.17770000000E+01 0. -1.
</event>
<event>
 7    1  0.2279257E-006  0.5163085E+03  0.7546771E-02  0.9364040E-01
        -11   -1    0    0    0    0  0.00000000000E+00  0.00000000000E+00  0.50000000000E+03  0.50000000000E+03  0.00000000000E+00 0.  1.
         11   -1    0    0    0    0 -0.00000000000E+00 -0.00000000000E+00 -0.50000000000E+03  0.50000000000E+03  0.00000000000E+00 0. -1.
         23    2    1    2    0    0 -0.54174466171E+01  0.25723153165E+02  0.26593401829E+03  0.28263322642E+03  0.92030480051E+02 0.  0.
        -11    1    1    2    0    0 -0.16282130337E+02 -0.96942869645E+02  0.21199314467E+03  0.23367524715E+03  0.00000000000E+00 0.  1.
         11    1    1    2    0    0  0.21699576954E+02  0.71219716480E+02 -0.47792716295E+03  0.48369152643E+03  0.00000000000E+00 0. -1.
        -15    1    3    3    0    0  0.38724093923E+02 -0.86650147180E+01  0.10881587854E+03  0.11583907407E+03  0.17770000000E+01 0.  1.
         15    1    3    3    0    0 -0.44141540541E+02  0.34388167883E+02  0.15711813974E+03  0.16679415235E+03  0.17770000000E+01 0. -1.
</event>
<event>
 7    1  0.2279257E-006  0.5268102E+03  0.7546771E-02  0.9341740E-01
        -11   -1    0    0    0    0  0.00000000000E+00  0.00000000000E+00  0.50000000000E+03  0.50000000000E+03  0.00000000000E+00 0.  1.
         11   -1    0    0    0    0 -0.00000000000E+00 -0.00000000000E+00 -0.50000000000E+03  0.50000000000E+03  0.00000000000E+00 0. -1.
         23    2    1    2    0    0 -0.10465465758E+03 -0.10750376363E+03  0.29772733285E+03  0.34627463114E+03  0.93567616707E+02 0.  0.
        -11    1    1    2    0    0 -0.49727980858E+01  0.80001140767E+02  0.16176585149E+03  0.18053559747E+03  0.00000000000E+00 0.  1.
         11    1    1    2    0    0  0.10962745566E+03  0.27502622862E+02 -0.45949318434E+03  0.47318977140E+03  0.00000000000E+00 0. -1.
        -15    1    3    3    0    0  0.28363654889E+01  0.23179156460E+01 -0.51936483628E+01  0.65991980153E+01  0.17770000000E+01 0. -1.
         15    1    3    3    0    0 -0.10749102307E+03 -0.10982167927E+03  0.30292098121E+03  0.33967543312E+03  0.17770000000E+01 0.  1.
</event>
<event>
 7    1  0.2279257E-006  0.4248168E+03  0.7546771E-02  0.9585790E-01
        -11   -1    0    0    0    0  0.00000000000E+00  0.00000000000E+00  0.50000000000E+03  0.50000000000E+03  0.00000000000E+00 0.  1.
         11   -1    0    0    0    0 -0.00000000000E+00 -0.00000000000E+00 -0.50000000000E+03  0.50000000000E+03  0.00000000000E+00 0. -1.
         23    2    1    2    0    0 -0.97023920077E+02  0.41039386024E+02 -0.42874038341E+02  0.14278747045E+03  0.86326162203E+02 0.  0.
        -11    1    1    2    0    0  0.14106655240E+03  0.49473927250E+02  0.43102976654E+03  0.45621716465E+03  0.00000000000E+00 0.  1.
         11    1    1    2    0    0 -0.44042632319E+02 -0.90513313274E+02 -0.38815572820E+03  0.40099536490E+03  0.00000000000E+00 0. -1.
        -15    1    3    3    0    0 -0.35812233111E+02  0.32217957416E+02  0.22134669826E+02  0.53043511929E+02  0.17770000000E+01 0. -1.
         15    1    3    3    0    0 -0.61211686966E+02  0.88214286076E+01 -0.65008708167E+02  0.89743958518E+02  0.17770000000E+01 0.  1.
</event>
<event>
 7    1  0.2279257E-006  0.4288567E+03  0.7546771E-02  0.9574782E-01
        -11   -1    0    0    0    0  0.00000000000E+00  0.00000000000E+00  0.50000000000E+03  0.50000000000E+03  0.00000000000E+00 0.  1.
         11   -1    0    0    0    0 -0.00000000000E+00 -0.00000000000E+00 -0.50000000000E+03  0.50000000000E+03  0.00000000000E+00 0. -1.
         23    2    1    2    0    0  0.19924523339E+02 -0.76506872119E+02  0.60651586871E+02  0.13651802861E+03  0.93318106672E+02 0.  0.
        -11    1    1    2    0    0 -0.45525074396E+02  0.83917428340E+02  0.39534400813E+03  0.40670819016E+03  0.00000000000E+00 0.  1.
         11    1    1    2    0    0  0.25600551057E+02 -0.74105562210E+01 -0.45599559500E+03  0.45677378123E+03  0.00000000000E+00 0. -1.
        -15    1    3    3    0    0  0.42920568343E+02 -0.27998876360E+02  0.64814243761E+02  0.82644758985E+02  0.17770000000E+01 0.  1.
         15    1    3    3    0    0 -0.22996045003E+02 -0.48507995759E+02 -0.41626568900E+01  0.53873269622E+02  0.17770000000E+01 0. -1.
</event>
<event>
 7    1  0.2279257E-006  0.4195742E+03  0.7546771E-02  0.9600270E-01
        -11   -1    0    0    0    0  0.00000000000E+00  0.00000000000E+00  0.50000000000E+03  0.50000000000E+03  0.00000000000E+00 0. -1.
         11   -1    0    0    0    0 -0.00000000000E+00 -0.00000000000E+00 -0.50000000000E+03  0.50000000000E+03  0.00000000000E+00 0.  1.
         23    2    1    2    0    0 -0.59021059097E+02  0.10558148196E+03  0.18791255937E+02  0.15197045198E+03  0.90060936185E+02 0.  0.
        -11    1    1    2    0    0 -0.38176303812E+03 -0.27394355283E+02  0.76549802248E+02  0.39032466000E+03  0.00000000000E+00 0. -1.
         11    1    1    2    0    0  0.44078409722E+03 -0.78187126677E+02 -0.95341058185E+02  0.45770488802E+03  0.00000000000E+00 0.  1.
        -15    1    3    3    0    0 -0.43692075949E+02  0.22546965116E+02  0.41665643542E+02  0.64471285992E+02  0.17770000000E+01 0.  1.
         15    1    3    3    0    0 -0.15328983148E+02  0.83034516844E+02 -0.22874387605E+02  0.87499165992E+02  0.17770000000E+01 0. -1.
</event>
<event>
 7    1  0.2279257E-006  0.4334270E+03  0.7546771E-02  0.9562485E-01
        -11   -1    0    0    0    0  0.00000000000E+00  0.00000000000E+00  0.50000000000E+03  0.50000000000E+03  0.00000000000E+00 0. -1.
         11   -1    0    0    0    0 -0.00000000000E+00 -0.00000000000E+00 -0.50000000000E+03  0.50000000000E+03  0.00000000000E+00 0.  1.
         23    2    1    2    0    0  0.36100797449E+03  0.25016213691E+03  0.62199673054E+02  0.45316175123E+03  0.92622465196E+02 0.  0.
        -11    1    1    2    0    0 -0.38783478630E+03 -0.14403491297E+03  0.13183958053E+02  0.41392716070E+03  0.00000000000E+00 0. -1.
         11    1    1    2    0    0  0.26826811810E+02 -0.10612722394E+03 -0.75383631107E+02  0.13291108807E+03  0.00000000000E+00 0.  1.
        -15    1    3    3    0    0  0.31553460538E+03  0.25060430163E+03  0.49958680284E+02  0.40603402648E+03  0.17770000000E+01 0.  1.
         15    1    3    3    0    0  0.45473369102E+02 -0.44216471986E+00  0.12240992770E+02  0.47127724750E+02  0.17770000000E+01 0. -1.
</event>
<event>
 7    1  0.2279257E-006  0.5280303E+03  0.7546771E-02  0.9339186E-01
        -11   -1    0    0    0    0  0.00000000000E+00  0.00000000000E+00  0.50000000000E+03  0.50000000000E+03  0.00000000000E+00 0. -1.
         11   -1    0    0    0    0 -0.00000000000E+00 -0.00000000000E+00 -0.50000000000E+03  0.50000000000E+03  0.00000000000E+00 0. -1.
         23    2    1    2    0    0  0.58555310648E+02 -0.21719181787E+02  0.34966874958E+03  0.36426766838E+03  0.80760463927E+02 0.  0.
        -11    1    1    2    0    0  0.37410153602E+02 -0.13480456808E+03  0.85125845263E+02  0.16376263523E+03  0.00000000000E+00 0. -1.
         11    1    1    2    0    0 -0.95965464250E+02  0.15652374986E+03 -0.43479459484E+03  0.47196969638E+03  0.00000000000E+00 0. -1.
        -15    1    3    3    0    0  0.30624147360E+02  0.17757196742E+02  0.53528658884E+02  0.64199933711E+02  0.17770000000E+01 0.  1.
         15    1    3    3    0    0  0.27931163288E+02 -0.39476378529E+02  0.29614009070E+03  0.30006773467E+03  0.17770000000E+01 0. -1.
</event>
<event>
 7    1  0.2279257E-006  0.4341413E+03  0.7546771E-02  0.9560577E-01
        -11   -1    0    0    0    0  0.00000000000E+00  0.00000000000E+00  0.50000000000E+03  0.50000000000E+03  0.00000000000E+00 0. -1.
         11   -1    0    0    0    0 -0.00000000000E+00 -0.00000000000E+00 -0.50000000000E+03  0.50000000000E+03  0.00000000000E+00 0.  1.
         23    2    1    2    0    0  0.20893039809E+02 -0.75241373117E+02  0.39165518791E+03  0.40926445517E+03  0.89475274259E+02 0.  0.
        -11    1    1    2    0    0 -0.81753743562E+02 -0.98083090430E+02  0.29684096134E+02  0.13109200120E+03  0.00000000000E+00 0. -1.
         11    1    1    2    0    0  0.60860703754E+02  0.17332446355E+03 -0.42133928405E+03  0.45964354364E+03  0.00000000000E+00 0.  1.
        -15    1    3    3    0    0  0.37906458775E+02 -0.30726023631E+02  0.31658029620E+03  0.32032363294E+03  0.17770000000E+01 0.  1.
         15    1    3    3    0    0 -0.17013418966E+02 -0.44515349486E+02  0.75074891708E+02  0.88940822228E+02  0.17770000000E+01 0. -1.
</event>
