<event>
 7    1  0.2537562E-007  0.1735836E+03  0.7546771E-02  0.1075782E+00
        -11   -1    0    0    0    0  0.00000000000E+00  0.00000000000E+00  0.18250000000E+03  0.18250000000E+03  0.00000000000E+00 0.  1.
         11   -1    0    0    0    0 -0.00000000000E+00 -0.00000000000E+00 -0.18250000000E+03  0.18250000000E+03  0.00000000000E+00 0. -1.
         23    2    1    2    0    0 -0.11712841658E+03 -0.85015082300E+02  0.70992545080E+02  0.18567400160E+03  0.92131770989E+02 0.  0.
        -11    1    1    2    0    0  0.11591871335E+03  0.66164303976E+02 -0.33914710036E+02  0.13771372765E+03  0.00000000000E+00 0.  1.
         11    1    1    2    0    0  0.12097032227E+01  0.18850778325E+02 -0.37077835044E+02  0.41612270749E+02  0.00000000000E+00 0. -1.
        -15    1    3    3    0    0 -0.93273236701E+02 -0.57554453391E+02  0.92456636648E+02  0.14340083396E+03  0.17770000000E+01 0.  1.
         15    1    3    3    0    0 -0.23855179876E+02 -0.27460628909E+02 -0.21464091568E+02  0.42273167647E+02  0.17770000000E+01 0. -1.
</event>
<event>
 7    1  0.2537562E-007  0.1526137E+03  0.7546771E-02  0.1095096E+00
        -11   -1    0    0    0    0  0.00000000000E+00  0.00000000000E+00  0.18250000000E+03  0.18250000000E+03  0.00000000000E+00 0. -1.
         11   -1    0    0    0    0 -0.00000000000E+00 -0.00000000000E+00 -0.18250000000E+03  0.18250000000E+03  0.00000000000E+00 0.  1.
         23    2    1    2    0    0  0.34177114612E+02  0.44009895990E+00  0.12727138668E+03  0.16120225886E+03  0.92843381799E+02 0.  0.
        -11    1    1    2    0    0 -0.42170179514E+01 -0.73239781961E+02 -0.31537705350E+02  0.79852838152E+02  0.00000000000E+00 0. -1.
         11    1    1    2    0    0 -0.29960096661E+02  0.72799683001E+02 -0.95733681327E+02  0.12394490299E+03  0.00000000000E+00 0.  1.
        -15    1    3    3    0    0 -0.14294573972E+02  0.35779133028E+02  0.56530419266E+02  0.68434839349E+02  0.17770000000E+01 0.  1.
         15    1    3    3    0    0  0.48471688584E+02 -0.35339034069E+02  0.70740967410E+02  0.92767419509E+02  0.17770000000E+01 0. -1.
</event>
<event>
 7    1  0.2537562E-007  0.1376871E+03  0.7546771E-02  0.1111053E+00
        -11   -1    0    0    0    0  0.00000000000E+00  0.00000000000E+00  0.18250000000E+03  0.18250000000E+03  0.00000000000E+00 0.  1.
         11   -1    0    0    0    0 -0.00000000000E+00 -0.00000000000E+00 -0.18250000000E+03  0.18250000000E+03  0.00000000000E+00 0. -1.
         23    2    1    2    0    0 -0.24018722533E+02  0.15912040608E+02 -0.93327522813E+02  0.13416932705E+03  0.91985269130E+02 0.  0.
        -11    1    1    2    0    0 -0.74091160730E+02 -0.48829195758E+02  0.91313804024E+02  0.12732635729E+03  0.00000000000E+00 0.  1.
         11    1    1    2    0    0  0.98109883262E+02  0.32917155149E+02  0.20137187886E+01  0.10350431566E+03  0.00000000000E+00 0. -1.
        -15    1    3    3    0    0 -0.14446305683E+02  0.17533112682E+02  0.13765524271E+02  0.26622418667E+02  0.17770000000E+01 0.  1.
         15    1    3    3    0    0 -0.95724168495E+01 -0.16210720741E+01 -0.10709304708E+03  0.10754690838E+03  0.17770000000E+01 0. -1.
</event>
<event>
 7    1  0.2537562E-007  0.1663273E+03  0.7546771E-02  0.1082111E+00
        -11   -1    0    0    0    0  0.00000000000E+00  0.00000000000E+00  0.18250000000E+03  0.18250000000E+03  0.00000000000E+00 0. -1.
         11   -1    0    0    0    0 -0.00000000000E+00 -0.00000000000E+00 -0.18250000000E+03  0.18250000000E+03  0.00000000000E+00 0.  1.
         23    2    1    2    0    0  0.30059563396E+01  0.12497356728E+02  0.15982422926E+03  0.18394770925E+03  0.90154066923E+02 0.  0.
        -11    1    1    2    0    0 -0.13205459999E+02  0.32192248849E+02 -0.41485448079E+02  0.54145798194E+02  0.00000000000E+00 0. -1.
         11    1    1    2    0    0  0.10199503660E+02 -0.44689605577E+02 -0.11833878118E+03  0.12690649255E+03  0.00000000000E+00 0.  1.
        -15    1    3    3    0    0 -0.96386237680E+01 -0.20598440038E+02  0.28189073989E+01  0.22984837786E+02  0.17770000000E+01 0.  1.
         15    1    3    3    0    0  0.12644580108E+02  0.33095796766E+02  0.15700532186E+03  0.16096287147E+03  0.17770000000E+01 0. -1.
</event>
<event>
 7    1  0.2537562E-007  0.1310713E+03  0.7546771E-02  0.1118857E+00
        -11   -1    0    0    0    0  0.00000000000E+00  0.00000000000E+00  0.18250000000E+03  0.18250000000E+03  0.00000000000E+00 0. -1.
         11   -1    0    0    0    0 -0.00000000000E+00 -0.00000000000E+00 -0.18250000000E+03  0.18250000000E+03  0.00000000000E+00 0.  1.
         23    2    1    2    0    0 -0.39719502520E+02  0.36982848382E+02 -0.29506150398E+02  0.95677252704E+02  0.73062670487E+02 0.  0.
        -11    1    1    2    0    0  0.23599883746E+02  0.45845305101E+02  0.12896505767E+03  0.13889108183E+03  0.00000000000E+00 0. -1.
         11    1    1    2    0    0  0.16119618774E+02 -0.82828153483E+02 -0.99458907275E+02  0.13043166546E+03  0.00000000000E+00 0.  1.
        -15    1    3    3    0    0 -0.77851043959E+01  0.26734286188E+02  0.21071377801E+02  0.34964133049E+02  0.17770000000E+01 0.  1.
         15    1    3    3    0    0 -0.31934398124E+02  0.10248562195E+02 -0.50577528198E+02  0.60713119655E+02  0.17770000000E+01 0. -1.
</event>
<event>
 7    1  0.2537562E-007  0.1589703E+03  0.7546771E-02  0.1088898E+00
        -11   -1    0    0    0    0  0.00000000000E+00  0.00000000000E+00  0.18250000000E+03  0.18250000000E+03  0.00000000000E+00 0.  1.
         11   -1    0    0    0    0 -0.00000000000E+00 -0.00000000000E+00 -0.18250000000E+03  0.18250000000E+03  0.00000000000E+00 0. -1.
         23    2    1    2    0    0 -0.36899018389E+02  0.10939682088E+02  0.13498046223E+03  0.16932842695E+03  0.94716296314E+02 0.  0.
        -11    1    1    2    0    0  0.17865381681E+02  0.59320333716E+02 -0.32471152768E+02  0.69946047900E+02  0.00000000000E+00 0.  1.
         11    1    1    2    0    0  0.19033636709E+02 -0.70260015804E+02 -0.10250930946E+03  0.12572552515E+03  0.00000000000E+00 0. -1.
        -15    1    3    3    0    0 -0.18198020744E+02 -0.41044164320E+02  0.44096317239E+02  0.62955812335E+02  0.17770000000E+01 0.  1.
         15    1    3    3    0    0 -0.18700997645E+02  0.51983846408E+02  0.90884144993E+02  0.10637261462E+03  0.17770000000E+01 0. -1.
</event>
<event>
 7    1  0.2537562E-007  0.1523930E+03  0.7546771E-02  0.1095317E+00
        -11   -1    0    0    0    0  0.00000000000E+00  0.00000000000E+00  0.18250000000E+03  0.18250000000E+03  0.00000000000E+00 0.  1.
         11   -1    0    0    0    0 -0.00000000000E+00 -0.00000000000E+00 -0.18250000000E+03  0.18250000000E+03  0.00000000000E+00 0. -1.
         23    2    1    2    0    0 -0.90713097169E+02  0.16324498619E+02  0.84647664647E+02  0.15763969934E+03  0.95862883460E+02 0.  0.
        -11    1    1    2    0    0  0.11716235379E+03  0.35549255380E+02 -0.26908724790E+02  0.12535886954E+03  0.00000000000E+00 0.  1.
         11    1    1    2    0    0 -0.26449256617E+02 -0.51873753999E+02 -0.57738939857E+02  0.82001431118E+02  0.00000000000E+00 0. -1.
        -15    1    3    3    0    0 -0.87318639859E+02  0.17024288541E+02  0.10459072117E+03  0.13731987457E+03  0.17770000000E+01 0.  1.
         15    1    3    3    0    0 -0.33944573100E+01 -0.69978992167E+00 -0.19943056524E+02  0.20319824775E+02  0.17770000000E+01 0. -1.
</event>
<event>
 7    1  0.2537562E-007  0.1521277E+03  0.7546771E-02  0.1095584E+00
        -11   -1    0    0    0    0  0.00000000000E+00  0.00000000000E+00  0.18250000000E+03  0.18250000000E+03  0.00000000000E+00 0.  1.
         11   -1    0    0    0    0 -0.00000000000E+00 -0.00000000000E+00 -0.18250000000E+03  0.18250000000E+03  0.00000000000E+00 0. -1.
         23    2    1    2    0    0  0.40134321034E+02 -0.58526402412E+01  0.82722497677E+02  0.12985574735E+03  0.91512219814E+02 0.  0.
        -11    1    1    2    0    0  0.10823752207E+02  0.57397608425E+02  0.54543747307E+02  0.79916577973E+02  0.00000000000E+00 0.  1.
         11    1    1    2    0    0 -0.50958073241E+02 -0.51544968183E+02 -0.13726624498E+03  0.15522767468E+03  0.00000000000E+00 0. -1.
        -15    1    3    3    0    0  0.29152477865E+02 -0.28555679420E+02 -0.25383173876E+01  0.40925475891E+02  0.17770000000E+01 0.  1.
         15    1    3    3    0    0  0.10981843170E+02  0.22703039178E+02  0.85260815065E+02  0.88930271459E+02  0.17770000000E+01 0. -1.
</event>
<event>
 7    1  0.2537562E-007  0.1611982E+03  0.7546771E-02  0.1086801E+00
        -11   -1    0    0    0    0  0.00000000000E+00  0.00000000000E+00  0.18250000000E+03  0.18250000000E+03  0.00000000000E+00 0. -1.
         11   -1    0    0    0    0 -0.00000000000E+00 -0.00000000000E+00 -0.18250000000E+03  0.18250000000E+03  0.00000000000E+00 0.  1.
         23    2    1    2    0    0 -0.25492951589E+02  0.50333332565E+02  0.14449862711E+03  0.17847138369E+03  0.88254442459E+02 0.  0.
        -11    1    1    2    0    0  0.47377041573E+02 -0.33099428668E+02 -0.23540316196E+02  0.62404348671E+02  0.00000000000E+00 0. -1.
         11    1    1    2    0    0 -0.21884089984E+02 -0.17233903897E+02 -0.12095831091E+03  0.12412426764E+03  0.00000000000E+00 0.  1.
        -15    1    3    3    0    0  0.44586019456E+01 -0.20863672723E+02  0.10618625080E+02  0.23897382668E+02  0.17770000000E+01 0.  1.
         15    1    3    3    0    0 -0.29951553534E+02  0.71197005288E+02  0.13388000203E+03  0.15457400102E+03  0.17770000000E+01 0. -1.
</event>
<event>
 7    1  0.2537562E-007  0.1453584E+03  0.7546771E-02  0.1102589E+00
        -11   -1    0    0    0    0  0.00000000000E+00  0.00000000000E+00  0.18250000000E+03  0.18250000000E+03  0.00000000000E+00 0.  1.
         11   -1    0    0    0    0 -0.00000000000E+00 -0.00000000000E+00 -0.18250000000E+03  0.18250000000E+03  0.00000000000E+00 0.  1.
         23    2    1    2    0    0  0.69308579276E+00 -0.61757705706E+02  0.27897460614E+02  0.11567886831E+03  0.93748800973E+02 0.  0.
        -11    1    1    2    0    0  0.19320080447E+02 -0.90186337376E+02  0.57607205811E+01  0.92412265741E+02  0.00000000000E+00 0.  1.
         11    1    1    2    0    0 -0.20013166240E+02  0.15194404308E+03 -0.33658181195E+02  0.15690886594E+03  0.00000000000E+00 0.  1.
        -15    1    3    3    0    0 -0.24192033254E+02 -0.74844051017E+02  0.35771146643E+02  0.86426958218E+02  0.17770000000E+01 0.  1.
         15    1    3    3    0    0  0.24885119047E+02  0.13086345312E+02 -0.78736860298E+01  0.29251910096E+02  0.17770000000E+01 0. -1.
</event>
<event>
 7    1  0.2537562E-007  0.1695691E+03  0.7546771E-02  0.1079241E+00
        -11   -1    0    0    0    0  0.00000000000E+00  0.00000000000E+00  0.18250000000E+03  0.18250000000E+03  0.00000000000E+00 0.  1.
         11   -1    0    0    0    0 -0.00000000000E+00 -0.00000000000E+00 -0.18250000000E+03  0.18250000000E+03  0.00000000000E+00 0. -1.
         23    2    1    2    0    0  0.52139079835E+02  0.58173358817E+02  0.11729188622E+03  0.16740267614E+03  0.90352897480E+02 0.  0.
        -11    1    1    2    0    0  0.19126048101E+02 -0.42337812789E+02  0.13004506100E+02  0.48243271931E+02  0.00000000000E+00 0.  1.
         11    1    1    2    0    0 -0.71265127936E+02 -0.15835546028E+02 -0.13029639232E+03  0.14935405193E+03  0.00000000000E+00 0. -1.
        -15    1    3    3    0    0  0.56526824450E+02  0.57325871324E+02  0.39916208663E+02  0.89877688269E+02  0.17770000000E+01 0. -1.
         15    1    3    3    0    0 -0.43877446150E+01  0.84748749295E+00  0.77375677554E+02  0.77524987868E+02  0.17770000000E+01 0.  1.
</event>
<event>
 7    1  0.2537562E-007  0.1581145E+03  0.7546771E-02  0.1089714E+00
        -11   -1    0    0    0    0  0.00000000000E+00  0.00000000000E+00  0.18250000000E+03  0.18250000000E+03  0.00000000000E+00 0. -1.
         11   -1    0    0    0    0 -0.00000000000E+00 -0.00000000000E+00 -0.18250000000E+03  0.18250000000E+03  0.00000000000E+00 0.  1.
         23    2    1    2    0    0  0.94736024458E+02  0.41068796556E+02 -0.85991154577E+02  0.16188220149E+03  0.90276287665E+02 0.  0.
        -11    1    1    2    0    0 -0.38000211138E+02 -0.33150214365E+02  0.12434285551E+03  0.13417935189E+03  0.00000000000E+00 0. -1.
         11    1    1    2    0    0 -0.56735813320E+02 -0.79185821910E+01 -0.38351700930E+02  0.68938446611E+02  0.00000000000E+00 0.  1.
        -15    1    3    3    0    0  0.34974960402E+02  0.42541884236E+01 -0.84594336022E+02  0.91655362038E+02  0.17770000000E+01 0. -1.
         15    1    3    3    0    0  0.59761064055E+02  0.36814608133E+02 -0.13968185549E+01  0.70226839457E+02  0.17770000000E+01 0.  1.
</event>
<event>
 7    1  0.2537562E-007  0.1793855E+03  0.7546771E-02  0.1070961E+00
        -11   -1    0    0    0    0  0.00000000000E+00  0.00000000000E+00  0.18250000000E+03  0.18250000000E+03  0.00000000000E+00 0.  1.
         11   -1    0    0    0    0 -0.00000000000E+00 -0.00000000000E+00 -0.18250000000E+03  0.18250000000E+03  0.00000000000E+00 0. -1.
         23    2    1    2    0    0  0.32809205397E+02  0.44207542868E+01  0.13770416712E+03  0.16961769793E+03  0.93336695799E+02 0.  0.
        -11    1    1    2    0    0  0.24887501695E+02  0.99100139980E+01  0.15568903644E+02  0.30983655025E+02  0.00000000000E+00 0.  1.
         11    1    1    2    0    0 -0.57696707091E+02 -0.14330768285E+02 -0.15327307076E+03  0.16439864704E+03  0.00000000000E+00 0. -1.
        -15    1    3    3    0    0  0.46598350450E+02  0.83509968064E+01  0.14562772179E+03  0.15313959806E+03  0.17770000000E+01 0.  1.
         15    1    3    3    0    0 -0.13789145053E+02 -0.39302425196E+01 -0.79235546731E+01  0.16478099867E+02  0.17770000000E+01 0. -1.
</event>
<event>
 7    1  0.2537562E-007  0.1745380E+03  0.7546771E-02  0.1074975E+00
        -11   -1    0    0    0    0  0.00000000000E+00  0.00000000000E+00  0.18250000000E+03  0.18250000000E+03  0.00000000000E+00 0. -1.
         11   -1    0    0    0    0 -0.00000000000E+00 -0.00000000000E+00 -0.18250000000E+03  0.18250000000E+03  0.00000000000E+00 0. -1.
         23    2    1    2    0    0 -0.13810414201E+02 -0.22921126368E+01  0.15751170094E+03  0.17747561968E+03  0.80570952139E+02 0.  0.
        -11    1    1    2    0    0 -0.19813808304E+02  0.25819711386E+02 -0.94640143453E+01  0.33894130216E+02  0.00000000000E+00 0. -1.
         11    1    1    2    0    0  0.33624222505E+02 -0.23527598750E+02 -0.14804768659E+03  0.15363025010E+03  0.00000000000E+00 0. -1.
        -15    1    3    3    0    0  0.94434572229E+01 -0.47953170875E+01  0.15326239908E+03  0.15363819398E+03  0.17770000000E+01 0.  1.
         15    1    3    3    0    0 -0.23253871424E+02  0.25032044506E+01  0.42493018606E+01  0.23837425700E+02  0.17770000000E+01 0. -1.
</event>
<event>
 7    1  0.2537562E-007  0.1399985E+03  0.7546771E-02  0.1108440E+00
        -11   -1    0    0    0    0  0.00000000000E+00  0.00000000000E+00  0.18250000000E+03  0.18250000000E+03  0.00000000000E+00 0.  1.
         11   -1    0    0    0    0 -0.00000000000E+00 -0.00000000000E+00 -0.18250000000E+03  0.18250000000E+03  0.00000000000E+00 0. -1.
         23    2    1    2    0    0  0.58482990581E+02 -0.22686467818E+01 -0.62101555548E+02  0.12862471390E+03  0.96240879463E+02 0.  0.
        -11    1    1    2    0    0 -0.67834863790E+02  0.10369526156E+03  0.50695887964E+02  0.13388184743E+03  0.00000000000E+00 0.  1.
         11    1    1    2    0    0  0.93518732098E+01 -0.10142661477E+03  0.11405667584E+02  0.10249343867E+03  0.00000000000E+00 0. -1.
        -15    1    3    3    0    0  0.58380196994E+02 -0.38427311584E+02 -0.19227273874E+02  0.72510354200E+02  0.17770000000E+01 0.  1.
         15    1    3    3    0    0  0.10279358609E+00  0.36158664802E+02 -0.42874281674E+02  0.56114359703E+02  0.17770000000E+01 0. -1.
</event>
<event>
 7    1  0.2537562E-007  0.1834383E+03  0.7546771E-02  0.1067710E+00
        -11   -1    0    0    0    0  0.00000000000E+00  0.00000000000E+00  0.18250000000E+03  0.18250000000E+03  0.00000000000E+00 0. -1.
         11   -1    0    0    0    0 -0.00000000000E+00 -0.00000000000E+00 -0.18250000000E+03  0.18250000000E+03  0.00000000000E+00 0.  1.
         23    2    1    2    0    0 -0.22143953454E+01 -0.28098246614E+02  0.15665209605E+03  0.18343829224E+03  0.91188337268E+02 0.  0.
        -11    1    1    2    0    0 -0.41616772872E+02  0.41217406958E+01 -0.72393235374E+02  0.83604575584E+02  0.00000000000E+00 0. -1.
         11    1    1    2    0    0  0.43831168217E+02  0.23976505919E+02 -0.84258860671E+02  0.97957132180E+02  0.00000000000E+00 0.  1.
        -15    1    3    3    0    0  0.45811694681E+01 -0.28689409826E+02  0.25978499013E+01  0.29222866098E+02  0.17770000000E+01 0.  1.
         15    1    3    3    0    0 -0.67955648135E+01  0.59116321182E+00  0.15405424614E+03  0.15421542614E+03  0.17770000000E+01 0. -1.
</event>
<event>
 7    1  0.2537562E-007  0.1508855E+03  0.7546771E-02  0.1096839E+00
        -11   -1    0    0    0    0  0.00000000000E+00  0.00000000000E+00  0.18250000000E+03  0.18250000000E+03  0.00000000000E+00 0.  1.
         11   -1    0    0    0    0 -0.00000000000E+00 -0.00000000000E+00 -0.18250000000E+03  0.18250000000E+03  0.00000000000E+00 0. -1.
         23    2    1    2    0    0 -0.48602433494E+02  0.70207671226E+02  0.90392913325E+02  0.15855013316E+03  0.98366418580E+02 0.  0.
        -11    1    1    2    0    0  0.84730011484E+02 -0.12398552427E+02  0.88079550437E+01  0.86084139192E+02  0.00000000000E+00 0.  1.
         11    1    1    2    0    0 -0.36127577990E+02 -0.57809118799E+02 -0.99200868369E+02  0.12036572765E+03  0.00000000000E+00 0. -1.
        -15    1    3    3    0    0 -0.61092066372E+02  0.72570471753E+02  0.10336096945E+03  0.14030453192E+03  0.17770000000E+01 0.  1.
         15    1    3    3    0    0  0.12489632878E+02 -0.23628005265E+01 -0.12968056124E+02  0.18245601234E+02  0.17770000000E+01 0. -1.
</event>
<event>
 7    1  0.2537562E-007  0.1626298E+03  0.7546771E-02  0.1085473E+00
        -11   -1    0    0    0    0  0.00000000000E+00  0.00000000000E+00  0.18250000000E+03  0.18250000000E+03  0.00000000000E+00 0.  1.
         11   -1    0    0    0    0 -0.00000000000E+00 -0.00000000000E+00 -0.18250000000E+03  0.18250000000E+03  0.00000000000E+00 0. -1.
         23    2    1    2    0    0 -0.65495292569E+02  0.34040925339E+01  0.53822512337E+02  0.14377133630E+03  0.11606943229E+03 0.  0.
        -11    1    1    2    0    0 -0.94132960015E+01  0.55820690804E+02  0.53278848114E+02  0.77737991482E+02  0.00000000000E+00 0.  1.
         11    1    1    2    0    0  0.74908588570E+02 -0.59224783337E+02 -0.10710136045E+03  0.14349067222E+03  0.00000000000E+00 0. -1.
        -15    1    3    3    0    0 -0.98503788745E+01 -0.46122346087E+02  0.50590281287E+02  0.69186957312E+02  0.17770000000E+01 0.  1.
         15    1    3    3    0    0 -0.55644913694E+02  0.49526438620E+02  0.32322310505E+01  0.74584378988E+02  0.17770000000E+01 0. -1.
</event>
<event>
 7    1  0.2537562E-007  0.1739431E+03  0.7546771E-02  0.1075478E+00
        -11   -1    0    0    0    0  0.00000000000E+00  0.00000000000E+00  0.18250000000E+03  0.18250000000E+03  0.00000000000E+00 0.  1.
         11   -1    0    0    0    0 -0.00000000000E+00 -0.00000000000E+00 -0.18250000000E+03  0.18250000000E+03  0.00000000000E+00 0. -1.
         23    2    1    2    0    0  0.93321316602E+02  0.26998122175E+02 -0.10804974201E+03  0.17124688405E+03  0.90625503118E+02 0.  0.
        -11    1    1    2    0    0 -0.10117205457E+03  0.11701414469E+02  0.11504644004E+03  0.15365022320E+03  0.00000000000E+00 0.  1.
         11    1    1    2    0    0  0.78507379640E+01 -0.38699536645E+02 -0.69966980250E+01  0.40102892743E+02  0.00000000000E+00 0. -1.
        -15    1    3    3    0    0  0.43898702207E+02  0.56377491421E+02 -0.39162273838E+02  0.81500668804E+02  0.17770000000E+01 0. -1.
         15    1    3    3    0    0  0.49422614395E+02 -0.29379369246E+02 -0.68887468174E+02  0.89746215248E+02  0.17770000000E+01 0.  1.
</event>
<event>
 7    1  0.2537562E-007  0.2068100E+03  0.7546771E-02  0.1050599E+00
        -11   -1    0    0    0    0  0.00000000000E+00  0.00000000000E+00  0.18250000000E+03  0.18250000000E+03  0.00000000000E+00 0.  1.
         11   -1    0    0    0    0 -0.00000000000E+00 -0.00000000000E+00 -0.18250000000E+03  0.18250000000E+03  0.00000000000E+00 0.  1.
         23    2    1    2    0    0 -0.26908937539E+02  0.26359609794E+02  0.51818264034E+02  0.11002528660E+03  0.89451166881E+02 0.  0.
        -11    1    1    2    0    0 -0.64441246367E+01  0.38223571797E+02  0.88683208506E+02  0.96784707750E+02  0.00000000000E+00 0.  1.
         11    1    1    2    0    0  0.33353062176E+02 -0.64583181591E+02 -0.14050147254E+03  0.15819000565E+03  0.00000000000E+00 0.  1.
        -15    1    3    3    0    0 -0.49760637061E+02 -0.44252363313E+01  0.51319054349E+02  0.71641515796E+02  0.17770000000E+01 0. -1.
         15    1    3    3    0    0  0.22851699522E+02  0.30784846125E+02  0.49920968537E+00  0.38383770806E+02  0.17770000000E+01 0.  1.
</event>
<event>
 7    1  0.2537562E-007  0.1842113E+03  0.7546771E-02  0.1067101E+00
        -11   -1    0    0    0    0  0.00000000000E+00  0.00000000000E+00  0.18250000000E+03  0.18250000000E+03  0.00000000000E+00 0. -1.
         11   -1    0    0    0    0 -0.00000000000E+00 -0.00000000000E+00 -0.18250000000E+03  0.18250000000E+03  0.00000000000E+00 0.  1.
         23    2    1    2    0    0  0.17782336799E+02 -0.19398468571E+02  0.15099139032E+03  0.17751409914E+03  0.89556369715E+02 0.  0.
        -11    1    1    2    0    0  0.11631768381E+02  0.61253615809E+01  0.14095628304E+02  0.19274460497E+02  0.00000000000E+00 0. -1.
         11    1    1    2    0    0 -0.29414105180E+02  0.13273106990E+02 -0.16508701862E+03  0.16821144037E+03  0.00000000000E+00 0.  1.
        -15    1    3    3    0    0 -0.33717647233E+02 -0.16310707290E+02  0.90675492288E+02  0.98122991893E+02  0.17770000000E+01 0. -1.
         15    1    3    3    0    0  0.51499984032E+02 -0.30877612811E+01  0.60315898031E+02  0.79391107243E+02  0.17770000000E+01 0.  1.
</event>
<event>
 7    1  0.2537562E-007  0.1800542E+03  0.7546771E-02  0.1070419E+00
        -11   -1    0    0    0    0  0.00000000000E+00  0.00000000000E+00  0.18250000000E+03  0.18250000000E+03  0.00000000000E+00 0.  1.
         11   -1    0    0    0    0 -0.00000000000E+00 -0.00000000000E+00 -0.18250000000E+03  0.18250000000E+03  0.00000000000E+00 0. -1.
         23    2    1    2    0    0 -0.93196688615E+01 -0.53113075641E+02  0.11441314367E+03  0.16880255349E+03  0.11178586488E+03 0.  0.
        -11    1    1    2    0    0  0.23086264520E+02  0.77547473181E+01  0.33191802189E+02  0.41168039157E+02  0.00000000000E+00 0.  1.
         11    1    1    2    0    0 -0.13766595658E+02  0.45358328322E+02 -0.14760494586E+03  0.15502940736E+03  0.00000000000E+00 0. -1.
        -15    1    3    3    0    0 -0.25282928810E+02 -0.71088027518E+02  0.12206445101E+03  0.14351174891E+03  0.17770000000E+01 0.  1.
         15    1    3    3    0    0  0.15963259949E+02  0.17974951878E+02 -0.76513073393E+01  0.25290804578E+02  0.17770000000E+01 0. -1.
</event>
<event>
 7    1  0.2537562E-007  0.1280313E+03  0.7546771E-02  0.1122615E+00
        -11   -1    0    0    0    0  0.00000000000E+00  0.00000000000E+00  0.18250000000E+03  0.18250000000E+03  0.00000000000E+00 0.  1.
         11   -1    0    0    0    0 -0.00000000000E+00 -0.00000000000E+00 -0.18250000000E+03  0.18250000000E+03  0.00000000000E+00 0. -1.
         23    2    1    2    0    0 -0.30864831495E+02 -0.13398602906E+02  0.38375899295E+02  0.10390062338E+03  0.90501212745E+02 0.  0.
        -11    1    1    2    0    0 -0.96479812600E+02 -0.57268183299E+02 -0.24169432190E+02  0.11477003315E+03  0.00000000000E+00 0.  1.
         11    1    1    2    0    0  0.12734464410E+03  0.70666786205E+02 -0.14206467105E+02  0.14632934347E+03  0.00000000000E+00 0. -1.
        -15    1    3    3    0    0 -0.53765568981E+01 -0.63678042655E+01  0.65457938778E+02  0.66010270211E+02  0.17770000000E+01 0.  1.
         15    1    3    3    0    0 -0.25488274597E+02 -0.70307986407E+01 -0.27082039483E+02  0.37890353166E+02  0.17770000000E+01 0. -1.
</event>
<event>
 7    1  0.2537562E-007  0.1742275E+03  0.7546771E-02  0.1075237E+00
        -11   -1    0    0    0    0  0.00000000000E+00  0.00000000000E+00  0.18250000000E+03  0.18250000000E+03  0.00000000000E+00 0.  1.
         11   -1    0    0    0    0 -0.00000000000E+00 -0.00000000000E+00 -0.18250000000E+03  0.18250000000E+03  0.00000000000E+00 0. -1.
         23    2    1    2    0    0 -0.12823947079E+02  0.12141678795E+03 -0.37680320962E+02  0.15822287829E+03  0.93317643626E+02 0.  0.
        -11    1    1    2    0    0  0.34069643009E+02 -0.15441077922E+03  0.49672349901E+02  0.16574308933E+03  0.00000000000E+00 0.  1.
         11    1    1    2    0    0 -0.21245695930E+02  0.32993991269E+02 -0.11992028939E+02  0.41034032382E+02  0.00000000000E+00 0. -1.
        -15    1    3    3    0    0 -0.32090251352E+02  0.68739121152E+02 -0.61090843487E+02  0.97417143746E+02  0.17770000000E+01 0. -1.
         15    1    3    3    0    0  0.19266304273E+02  0.52677666801E+02  0.23410522525E+02  0.60805734547E+02  0.17770000000E+01 0.  1.
</event>
<event>
 7    1  0.2537562E-007  0.1605876E+03  0.7546771E-02  0.1087372E+00
        -11   -1    0    0    0    0  0.00000000000E+00  0.00000000000E+00  0.18250000000E+03  0.18250000000E+03  0.00000000000E+00 0. -1.
         11   -1    0    0    0    0 -0.00000000000E+00 -0.00000000000E+00 -0.18250000000E+03  0.18250000000E+03  0.00000000000E+00 0.  1.
         23    2    1    2    0    0  0.56697585464E+01 -0.27137014977E+02  0.12552628260E+03  0.15969892640E+03  0.94754080267E+02 0.  0.
        -11    1    1    2    0    0 -0.66897349880E+02 -0.15787112338E+01 -0.50052374297E+01  0.67102907179E+02  0.00000000000E+00 0. -1.
         11    1    1    2    0    0  0.61227591333E+02  0.28715726211E+02 -0.12052104517E+03  0.13819816642E+03  0.00000000000E+00 0.  1.
        -15    1    3    3    0    0  0.25519704099E+02  0.29530999470E+01 -0.32545935519E+01  0.25956236338E+02  0.17770000000E+01 0.  1.
         15    1    3    3    0    0 -0.19849945553E+02 -0.30090114924E+02  0.12878087615E+03  0.13374269007E+03  0.17770000000E+01 0. -1.
</event>
<event>
 7    1  0.2537562E-007  0.1557649E+03  0.7546771E-02  0.1091983E+00
        -11   -1    0    0    0    0  0.00000000000E+00  0.00000000000E+00  0.18250000000E+03  0.18250000000E+03  0.00000000000E+00 0.  1.
         11   -1    0    0    0    0 -0.00000000000E+00 -0.00000000000E+00 -0.18250000000E+03  0.18250000000E+03  0.00000000000E+00 0.  1.
         23    2    1    2    0    0 -0.43974684824E+02 -0.18632024095E+02  0.10165813242E+03  0.13675381511E+03  0.78014773182E+02 0.  0.
        -11    1    1    2    0    0 -0.12498772008E+02  0.45722244116E+02  0.47110890995E+02  0.66829476723E+02  0.00000000000E+00 0.  1.
         11    1    1    2    0    0  0.56473456832E+02 -0.27090220021E+02 -0.14876902341E+03  0.16141670816E+03  0.00000000000E+00 0.  1.
        -15    1    3    3    0    0 -0.24923196937E+02  0.43387659449E+01  0.10373089956E+03  0.10678599106E+03  0.17770000000E+01 0. -1.
         15    1    3    3    0    0 -0.19051487887E+02 -0.22970790040E+02 -0.20727671400E+01  0.29967824052E+02  0.17770000000E+01 0.  1.
</event>
<event>
 7    1  0.2537562E-007  0.1600665E+03  0.7546771E-02  0.1087862E+00
        -11   -1    0    0    0    0  0.00000000000E+00  0.00000000000E+00  0.18250000000E+03  0.18250000000E+03  0.00000000000E+00 0.  1.
         11   -1    0    0    0    0 -0.00000000000E+00 -0.00000000000E+00 -0.18250000000E+03  0.18250000000E+03  0.00000000000E+00 0. -1.
         23    2    1    2    0    0  0.21842151954E+02  0.25698644319E+01  0.13292873609E+03  0.16178118623E+03  0.89551211800E+02 0.  0.
        -11    1    1    2    0    0 -0.65031833297E+02 -0.26306522646E+01 -0.17451588496E+01  0.65108411535E+02  0.00000000000E+00 0.  1.
         11    1    1    2    0    0  0.43189681342E+02  0.60787832758E-01 -0.13118357724E+03  0.13811040224E+03  0.00000000000E+00 0. -1.
        -15    1    3    3    0    0  0.39222840903E+02 -0.86750687432E+00  0.14256092529E+02  0.41780111535E+02  0.17770000000E+01 0. -1.
         15    1    3    3    0    0 -0.17380688948E+02  0.34373713062E+01  0.11867264356E+03  0.12000107469E+03  0.17770000000E+01 0.  1.
</event>
<event>
 7    1  0.2537562E-007  0.1523325E+03  0.7546771E-02  0.1095378E+00
        -11   -1    0    0    0    0  0.00000000000E+00  0.00000000000E+00  0.18250000000E+03  0.18250000000E+03  0.00000000000E+00 0. -1.
         11   -1    0    0    0    0 -0.00000000000E+00 -0.00000000000E+00 -0.18250000000E+03  0.18250000000E+03  0.00000000000E+00 0. -1.
         23    2    1    2    0    0 -0.74294021798E+02  0.62031604101E+01 -0.10388889596E+03  0.15659566943E+03  0.90394801321E+02 0.  0.
        -11    1    1    2    0    0  0.19745733986E+02  0.49049780896E+02  0.11816904138E+03  0.12945924979E+03  0.00000000000E+00 0. -1.
         11    1    1    2    0    0  0.54548287812E+02 -0.55252941306E+02 -0.14280145422E+02  0.78945080781E+02  0.00000000000E+00 0. -1.
        -15    1    3    3    0    0 -0.13796141991E+02 -0.39133019044E+02 -0.38200295607E+02  0.56428246710E+02  0.17770000000E+01 0.  1.
         15    1    3    3    0    0 -0.60497879807E+02  0.45336179454E+02 -0.65688600351E+02  0.10016742272E+03  0.17770000000E+01 0. -1.
</event>
<event>
 7    1  0.2537562E-007  0.1446423E+03  0.7546771E-02  0.1103354E+00
        -11   -1    0    0    0    0  0.00000000000E+00  0.00000000000E+00  0.18250000000E+03  0.18250000000E+03  0.00000000000E+00 0. -1.
         11   -1    0    0    0    0 -0.00000000000E+00 -0.00000000000E+00 -0.18250000000E+03  0.18250000000E+03  0.00000000000E+00 0.  1.
         23    2    1    2    0    0 -0.25408209976E+02  0.30983613895E+02  0.89496199390E+02  0.13019728923E+03  0.85651637192E+02 0.  0.
        -11    1    1    2    0    0 -0.32182140840E+02  0.81343866351E+02 -0.16612282088E+02  0.89042027707E+02  0.00000000000E+00 0. -1.
         11    1    1    2    0    0  0.57590350817E+02 -0.11232748025E+03 -0.72883917302E+02  0.14576068306E+03  0.00000000000E+00 0.  1.
        -15    1    3    3    0    0  0.21890733961E+02  0.60508621242E+01 -0.33650959140E+01  0.23028216720E+02  0.17770000000E+01 0.  1.
         15    1    3    3    0    0 -0.47298943937E+02  0.24932751770E+02  0.92861295304E+02  0.10716907251E+03  0.17770000000E+01 0. -1.
</event>
<event>
 7    1  0.2537562E-007  0.2061248E+03  0.7546771E-02  0.1051065E+00
        -11   -1    0    0    0    0  0.00000000000E+00  0.00000000000E+00  0.18250000000E+03  0.18250000000E+03  0.00000000000E+00 0. -1.
         11   -1    0    0    0    0 -0.00000000000E+00 -0.00000000000E+00 -0.18250000000E+03  0.18250000000E+03  0.00000000000E+00 0.  1.
         23    2    1    2    0    0 -0.25595737417E+02 -0.40740849626E+02 -0.64245168815E+02  0.11742371244E+03  0.85708388889E+02 0.  0.
        -11    1    1    2    0    0  0.12844406638E+02  0.44618579843E+02  0.15193923892E+03  0.15887519873E+03  0.00000000000E+00 0. -1.
         11    1    1    2    0    0  0.12751330779E+02 -0.38777302171E+01 -0.87694070100E+02  0.88701088826E+02  0.00000000000E+00 0.  1.
        -15    1    3    3    0    0 -0.37818723969E+01  0.10390477557E+02 -0.60665062626E+02  0.61690129965E+02  0.17770000000E+01 0.  1.
         15    1    3    3    0    0 -0.21813865020E+02 -0.51131327183E+02 -0.35801061896E+01  0.55733582479E+02  0.17770000000E+01 0. -1.
</event>
<event>
 7    1  0.2537562E-007  0.1779067E+03  0.7546771E-02  0.1072171E+00
        -11   -1    0    0    0    0  0.00000000000E+00  0.00000000000E+00  0.18250000000E+03  0.18250000000E+03  0.00000000000E+00 0.  1.
         11   -1    0    0    0    0 -0.00000000000E+00 -0.00000000000E+00 -0.18250000000E+03  0.18250000000E+03  0.00000000000E+00 0.  1.
         23    2    1    2    0    0  0.17660982942E+02 -0.49418794337E+02 -0.12663760251E+03  0.16609982001E+03  0.93797336228E+02 0.  0.
        -11    1    1    2    0    0 -0.91523819718E+01  0.76511001434E+02  0.14561443508E+03  0.16474605652E+03  0.00000000000E+00 0.  1.
         11    1    1    2    0    0 -0.85086009705E+01 -0.27092207097E+02 -0.18976832567E+02  0.34154123472E+02  0.00000000000E+00 0.  1.
        -15    1    3    3    0    0 -0.18543300881E+01 -0.31814093543E+02 -0.13479566246E+03  0.13852293469E+03  0.17770000000E+01 0. -1.
         15    1    3    3    0    0  0.19515313030E+02 -0.17604700794E+02  0.81580599454E+01  0.27576885317E+02  0.17770000000E+01 0.  1.
</event>
<event>
 7    1  0.2537562E-007  0.1559755E+03  0.7546771E-02  0.1091778E+00
        -11   -1    0    0    0    0  0.00000000000E+00  0.00000000000E+00  0.18250000000E+03  0.18250000000E+03  0.00000000000E+00 0. -1.
         11   -1    0    0    0    0 -0.00000000000E+00 -0.00000000000E+00 -0.18250000000E+03  0.18250000000E+03  0.00000000000E+00 0. -1.
         23    2    1    2    0    0 -0.27693061431E+02 -0.38151603174E+02  0.96608108687E+02  0.15090865302E+03  0.10591432583E+03 0.  0.
        -11    1    1    2    0    0  0.88311047270E+02 -0.17490201046E+02 -0.96272624038E+02  0.13180730762E+03  0.00000000000E+00 0. -1.
         11    1    1    2    0    0 -0.60617985839E+02  0.55641804220E+02 -0.33548464934E+00  0.82284039363E+02  0.00000000000E+00 0. -1.
        -15    1    3    3    0    0  0.31639100051E+02 -0.70938468322E+01  0.72967049241E+02  0.79866784829E+02  0.17770000000E+01 0. -1.
         15    1    3    3    0    0 -0.59332161482E+02 -0.31057756342E+02  0.23641059446E+02  0.71041868190E+02  0.17770000000E+01 0.  1.
</event>
<event>
 7    1  0.2537562E-007  0.1707334E+03  0.7546771E-02  0.1078227E+00
        -11   -1    0    0    0    0  0.00000000000E+00  0.00000000000E+00  0.18250000000E+03  0.18250000000E+03  0.00000000000E+00 0.  1.
         11   -1    0    0    0    0 -0.00000000000E+00 -0.00000000000E+00 -0.18250000000E+03  0.18250000000E+03  0.00000000000E+00 0.  1.
         23    2    1    2    0    0  0.89343499689E+01 -0.22601800528E+02  0.13979377905E+03  0.16892933905E+03  0.91674189031E+02 0.  0.
        -11    1    1    2    0    0 -0.42627242444E+02 -0.19253085955E+02 -0.50350087056E+00  0.46776240019E+02  0.00000000000E+00 0.  1.
         11    1    1    2    0    0  0.33692892475E+02  0.41854886484E+02 -0.13929027818E+03  0.14929442093E+03  0.00000000000E+00 0.  1.
        -15    1    3    3    0    0 -0.11483995865E+02 -0.43569595406E+02  0.13065461039E+03  0.13821713624E+03  0.17770000000E+01 0.  1.
         15    1    3    3    0    0  0.20418345834E+02  0.20967794877E+02  0.91391686558E+01  0.30712202808E+02  0.17770000000E+01 0. -1.
</event>
<event>
 7    1  0.2537562E-007  0.1370133E+03  0.7546771E-02  0.1111826E+00
        -11   -1    0    0    0    0  0.00000000000E+00  0.00000000000E+00  0.18250000000E+03  0.18250000000E+03  0.00000000000E+00 0.  1.
         11   -1    0    0    0    0 -0.00000000000E+00 -0.00000000000E+00 -0.18250000000E+03  0.18250000000E+03  0.00000000000E+00 0. -1.
         23    2    1    2    0    0 -0.42445635257E+02 -0.79301342965E+02 -0.40184395751E+02  0.13621445436E+03  0.94070489347E+02 0.  0.
        -11    1    1    2    0    0  0.85189335305E+02 -0.44985010182E+01  0.88593711689E+02  0.12298904468E+03  0.00000000000E+00 0.  1.
         11    1    1    2    0    0 -0.42743700048E+02  0.83799843983E+02 -0.48409315938E+02  0.10579650096E+03  0.00000000000E+00 0. -1.
        -15    1    3    3    0    0 -0.62153217781E+02 -0.70109927435E+02 -0.37967321489E+01  0.93786978358E+02  0.17770000000E+01 0.  1.
         15    1    3    3    0    0  0.19707582524E+02 -0.91914155297E+01 -0.36387663602E+02  0.42427476001E+02  0.17770000000E+01 0. -1.
</event>
<event>
 7    1  0.2537562E-007  0.1624308E+03  0.7546771E-02  0.1085657E+00
        -11   -1    0    0    0    0  0.00000000000E+00  0.00000000000E+00  0.18250000000E+03  0.18250000000E+03  0.00000000000E+00 0. -1.
         11   -1    0    0    0    0 -0.00000000000E+00 -0.00000000000E+00 -0.18250000000E+03  0.18250000000E+03  0.00000000000E+00 0. -1.
         23    2    1    2    0    0 -0.11083375322E+03  0.93783484821E+01 -0.79464712811E+02  0.16420510569E+03  0.90975831292E+02 0.  0.
        -11    1    1    2    0    0  0.66250213462E+02 -0.20401222595E+02  0.12062417469E+03  0.13912401729E+03  0.00000000000E+00 0. -1.
         11    1    1    2    0    0  0.44583539759E+02  0.11022874112E+02 -0.41159461875E+02  0.61670877025E+02  0.00000000000E+00 0. -1.
        -15    1    3    3    0    0 -0.25432138625E+02 -0.33871140281E+02 -0.45540797224E+01  0.42637368470E+02  0.17770000000E+01 0.  1.
         15    1    3    3    0    0 -0.85401614597E+02  0.43249488763E+02 -0.74910633088E+02  0.12156773722E+03  0.17770000000E+01 0. -1.
</event>
<event>
 7    1  0.2537562E-007  0.1759088E+03  0.7546771E-02  0.1073826E+00
        -11   -1    0    0    0    0  0.00000000000E+00  0.00000000000E+00  0.18250000000E+03  0.18250000000E+03  0.00000000000E+00 0.  1.
         11   -1    0    0    0    0 -0.00000000000E+00 -0.00000000000E+00 -0.18250000000E+03  0.18250000000E+03  0.00000000000E+00 0.  1.
         23    2    1    2    0    0  0.34628508834E+02  0.48706206619E+02  0.14041144134E+03  0.17501806185E+03  0.85700180444E+02 0.  0.
        -11    1    1    2    0    0  0.32051607879E+02 -0.94687694538E+01 -0.46778452827E+01  0.33746783537E+02  0.00000000000E+00 0.  1.
         11    1    1    2    0    0 -0.66680116713E+02 -0.39237437165E+02 -0.13573359605E+03  0.15623515461E+03  0.00000000000E+00 0.  1.
        -15    1    3    3    0    0  0.38125501152E+02  0.35650072344E+02  0.23424321665E+02  0.57239305295E+02  0.17770000000E+01 0. -1.
         15    1    3    3    0    0 -0.34969923177E+01  0.13056134275E+02  0.11698711967E+03  0.11777875655E+03  0.17770000000E+01 0.  1.
</event>
<event>
 7    1  0.2537562E-007  0.1764836E+03  0.7546771E-02  0.1073347E+00
        -11   -1    0    0    0    0  0.00000000000E+00  0.00000000000E+00  0.18250000000E+03  0.18250000000E+03  0.00000000000E+00 0.  1.
         11   -1    0    0    0    0 -0.00000000000E+00 -0.00000000000E+00 -0.18250000000E+03  0.18250000000E+03  0.00000000000E+00 0. -1.
         23    2    1    2    0    0  0.25868688076E+01 -0.19808305515E+02  0.16265000153E+03  0.18461754600E+03  0.85026786571E+02 0.  0.
        -11    1    1    2    0    0 -0.40333131812E+01  0.44026023893E+02 -0.14133467783E+03  0.14808797909E+03  0.00000000000E+00 0. -1.
         11    1    1    2    0    0  0.14464443736E+01 -0.24217718378E+02 -0.21315323706E+02  0.32294474906E+02  0.00000000000E+00 0.  1.
        -15    1    3    3    0    0 -0.19385519348E+02  0.18483284139E+02  0.15543841866E+02  0.31019331100E+02  0.17770000000E+01 0. -1.
         15    1    3    3    0    0  0.21972388155E+02 -0.38291589654E+02  0.14710615967E+03  0.15359821490E+03  0.17770000000E+01 0.  1.
</event>
<event>
 7    1  0.2537562E-007  0.1587864E+03  0.7546771E-02  0.1089073E+00
        -11   -1    0    0    0    0  0.00000000000E+00  0.00000000000E+00  0.18250000000E+03  0.18250000000E+03  0.00000000000E+00 0.  1.
         11   -1    0    0    0    0 -0.00000000000E+00 -0.00000000000E+00 -0.18250000000E+03  0.18250000000E+03  0.00000000000E+00 0. -1.
         23    2    1    2    0    0 -0.10675875322E+02  0.29908425108E+01  0.15737367090E+03  0.18279576592E+03  0.92330386612E+02 0.  0.
        -11    1    1    2    0    0  0.35757195166E+02 -0.30527275537E+02 -0.50369007251E+02  0.68902310915E+02  0.00000000000E+00 0. -1.
         11    1    1    2    0    0 -0.25081319845E+02  0.27536433026E+02 -0.10700466365E+03  0.11330192316E+03  0.00000000000E+00 0.  1.
        -15    1    3    3    0    0  0.16650985643E+02  0.20097443121E+02  0.44929407413E+01  0.26542546758E+02  0.17770000000E+01 0. -1.
         15    1    3    3    0    0 -0.27326860965E+02 -0.17106600610E+02  0.15288073016E+03  0.15625321916E+03  0.17770000000E+01 0.  1.
</event>
<event>
 7    1  0.2537562E-007  0.1292973E+03  0.7546771E-02  0.1121036E+00
        -11   -1    0    0    0    0  0.00000000000E+00  0.00000000000E+00  0.18250000000E+03  0.18250000000E+03  0.00000000000E+00 0. -1.
         11   -1    0    0    0    0 -0.00000000000E+00 -0.00000000000E+00 -0.18250000000E+03  0.18250000000E+03  0.00000000000E+00 0. -1.
         23    2    1    2    0    0  0.62599475393E+00 -0.22594718888E+02 -0.40329070048E+02  0.10230536095E+03  0.91263573220E+02 0.  0.
        -11    1    1    2    0    0 -0.85887732598E+02 -0.18312019399E+02  0.11322739679E+03  0.14329157703E+03  0.00000000000E+00 0. -1.
         11    1    1    2    0    0  0.85261737844E+02  0.40906738287E+02 -0.72898326741E+02  0.11940306202E+03  0.00000000000E+00 0. -1.
        -15    1    3    3    0    0 -0.33300300511E+02 -0.28313169699E+02  0.64401394161E+01  0.44217402877E+02  0.17770000000E+01 0. -1.
         15    1    3    3    0    0  0.33926295264E+02  0.57184508105E+01 -0.46769209464E+02  0.58087958072E+02  0.17770000000E+01 0.  1.
</event>
<event>
 7    1  0.2537562E-007  0.1521319E+03  0.7546771E-02  0.1095579E+00
        -11   -1    0    0    0    0  0.00000000000E+00  0.00000000000E+00  0.18250000000E+03  0.18250000000E+03  0.00000000000E+00 0.  1.
         11   -1    0    0    0    0 -0.00000000000E+00 -0.00000000000E+00 -0.18250000000E+03  0.18250000000E+03  0.00000000000E+00 0. -1.
         23    2    1    2    0    0  0.38940402561E+02  0.42782905965E+02  0.96226906262E+02  0.14564224550E+03  0.92764832734E+02 0.  0.
        -11    1    1    2    0    0  0.12180381853E+01 -0.73572429356E+02  0.32949808645E+02  0.80623047996E+02  0.00000000000E+00 0.  1.
         11    1    1    2    0    0 -0.40158440746E+02  0.30789523391E+02 -0.12917671491E+03  0.13873470650E+03  0.00000000000E+00 0. -1.
        -15    1    3    3    0    0 -0.13384513012E+00  0.43776263921E+02  0.97076987240E+02  0.10650576688E+03  0.17770000000E+01 0.  1.
         15    1    3    3    0    0  0.39074247691E+02 -0.99335795627E+00 -0.85008097791E+00  0.39136478627E+02  0.17770000000E+01 0. -1.
</event>
<event>
 7    1  0.2537562E-007  0.1290984E+03  0.7546771E-02  0.1121283E+00
        -11   -1    0    0    0    0  0.00000000000E+00  0.00000000000E+00  0.18250000000E+03  0.18250000000E+03  0.00000000000E+00 0.  1.
         11   -1    0    0    0    0 -0.00000000000E+00 -0.00000000000E+00 -0.18250000000E+03  0.18250000000E+03  0.00000000000E+00 0. -1.
         23    2    1    2    0    0 -0.63548524450E+02  0.17772641201E+02  0.43952983444E+02  0.11057795240E+03  0.77080069204E+02 0.  0.
        -11    1    1    2    0    0  0.24262450305E+02 -0.50036539689E+02  0.92989349891E+02  0.10834823945E+03  0.00000000000E+00 0.  1.
         11    1    1    2    0    0  0.39286074146E+02  0.32263898488E+02 -0.13694233334E+03  0.14607380815E+03  0.00000000000E+00 0. -1.
        -15    1    3    3    0    0 -0.35597274084E+02  0.39815018835E+02  0.51424250195E+02  0.74162071736E+02  0.17770000000E+01 0. -1.
         15    1    3    3    0    0 -0.27951250366E+02 -0.22042377634E+02 -0.74712667505E+01  0.36415880666E+02  0.17770000000E+01 0.  1.
</event>
<event>
 7    1  0.2537562E-007  0.1290263E+03  0.7546771E-02  0.1121372E+00
        -11   -1    0    0    0    0  0.00000000000E+00  0.00000000000E+00  0.18250000000E+03  0.18250000000E+03  0.00000000000E+00 0.  1.
         11   -1    0    0    0    0 -0.00000000000E+00 -0.00000000000E+00 -0.18250000000E+03  0.18250000000E+03  0.00000000000E+00 0. -1.
         23    2    1    2    0    0  0.97901197555E+01 -0.35798816291E+02 -0.13523684696E+02  0.10394179793E+03  0.96143671740E+02 0.  0.
        -11    1    1    2    0    0 -0.43835339863E+02  0.17283771631E+02  0.13001474948E+03  0.13828991600E+03  0.00000000000E+00 0.  1.
         11    1    1    2    0    0  0.34045220108E+02  0.18515044660E+02 -0.11649106479E+03  0.12276828608E+03  0.00000000000E+00 0. -1.
        -15    1    3    3    0    0 -0.37039130475E+02 -0.12383309093E+02  0.17743744440E+02  0.42932991117E+02  0.17770000000E+01 0.  1.
         15    1    3    3    0    0  0.46829250231E+02 -0.23415507198E+02 -0.31267429136E+02  0.61008806809E+02  0.17770000000E+01 0. -1.
</event>
<event>
 7    1  0.4202561E-007  0.1525537E+03  0.7546771E-02  0.1095156E+00
        -11   -1    0    0    0    0  0.00000000000E+00  0.00000000000E+00  0.18250000000E+03  0.18250000000E+03  0.00000000000E+00 0.  1.
         11   -1    0    0    0    0 -0.00000000000E+00 -0.00000000000E+00 -0.18250000000E+03  0.18250000000E+03  0.00000000000E+00 0. -1.
         23    2    1    2    0    0  0.84035261159E+01 -0.10214686391E+01 -0.88857444719E+02  0.12766330472E+03  0.91272182185E+02 0.  0.
        -11    1    1    2    0    0 -0.60495594255E+02  0.21614979184E+02  0.14465187595E+03  0.15827535962E+03  0.00000000000E+00 0.  1.
         11    1    1    2    0    0  0.52092068139E+02 -0.20593510545E+02 -0.55794431228E+02  0.79061335655E+02  0.00000000000E+00 0. -1.
        -15    1    3    3    0    0  0.35236980796E+02 -0.15261692428E+01 -0.93879058093E+02  0.10030159164E+03  0.17770000000E+01 0. -1.
         15    1    3    3    0    0 -0.26833454680E+02  0.50470060368E+00  0.50216133744E+01  0.27361713080E+02  0.17770000000E+01 0.  1.
</event>
<event>
 7    1  0.2537562E-007  0.1629609E+03  0.7546771E-02  0.1085168E+00
        -11   -1    0    0    0    0  0.00000000000E+00  0.00000000000E+00  0.18250000000E+03  0.18250000000E+03  0.00000000000E+00 0. -1.
         11   -1    0    0    0    0 -0.00000000000E+00 -0.00000000000E+00 -0.18250000000E+03  0.18250000000E+03  0.00000000000E+00 0. -1.
         23    2    1    2    0    0 -0.62143609200E+01 -0.41973983864E+02 -0.10363087097E+03  0.14451284591E+03  0.91346437315E+02 0.  0.
        -11    1    1    2    0    0  0.48619065226E+02  0.75217005436E+02  0.13205958513E+03  0.15956548948E+03  0.00000000000E+00 0. -1.
         11    1    1    2    0    0 -0.42404704306E+02 -0.33243021572E+02 -0.28428714153E+02  0.60921664610E+02  0.00000000000E+00 0. -1.
        -15    1    3    3    0    0 -0.26505942153E+01 -0.33368152043E+02  0.63562438460E+01  0.34117719520E+02  0.17770000000E+01 0.  1.
         15    1    3    3    0    0 -0.35637667048E+01 -0.86058318217E+01 -0.10998711482E+03  0.11039512639E+03  0.17770000000E+01 0. -1.
</event>
<event>
 6    1  0.2537562E-007  0.1160666E+03  0.7546771E-02  0.1138611E+00
        -11   -1    0    0    0    0  0.00000000000E+00  0.00000000000E+00  0.18250000000E+03  0.18250000000E+03  0.00000000000E+00 0. -1.
         11   -1    0    0    0    0 -0.00000000000E+00 -0.00000000000E+00 -0.18250000000E+03  0.18250000000E+03  0.00000000000E+00 0.  1.
        -11    1    1    2    0    0  0.12484499215E+03 -0.48045344402E+02 -0.39780162679E+02  0.13956034010E+03  0.00000000000E+00 0. -1.
         11    1    1    2    0    0 -0.54043459439E+02 -0.11686422605E+02 -0.80675934502E+01  0.55878028290E+02  0.00000000000E+00 0.  1.
        -15    1    1    2    0    0  0.56833556934E+01 -0.10361505197E+02  0.63511311827E+02  0.64625890948E+02  0.17770000000E+01 0.  1.
         15    1    1    2    0    0 -0.76484888409E+02  0.70093272204E+02 -0.15663555698E+02  0.10493574067E+03  0.17770000000E+01 0. -1.
</event>
<event>
 7    1  0.2820427E-007  0.1452625E+03  0.7546771E-02  0.1102691E+00
        -11   -1    0    0    0    0  0.00000000000E+00  0.00000000000E+00  0.18250000000E+03  0.18250000000E+03  0.00000000000E+00 0.  1.
         11   -1    0    0    0    0 -0.00000000000E+00 -0.00000000000E+00 -0.18250000000E+03  0.18250000000E+03  0.00000000000E+00 0. -1.
         23    2    1    2    0    0  0.19438599121E+02  0.26190628356E+02 -0.77100770176E+02  0.12387762093E+03  0.91308970290E+02 0.  0.
        -11    1    1    2    0    0 -0.10561901643E+03 -0.16579766294E+02  0.10517785712E+03  0.14997548770E+03  0.00000000000E+00 0.  1.
         11    1    1    2    0    0  0.86180417305E+02 -0.96108620624E+01 -0.28077086945E+02  0.91146891377E+02  0.00000000000E+00 0. -1.
        -15    1    3    3    0    0 -0.24372266613E+02  0.34160116350E+02 -0.97503402047E+01  0.43117836124E+02  0.17770000000E+01 0.  1.
         15    1    3    3    0    0  0.43810865734E+02 -0.79694879934E+01 -0.67350429971E+02  0.80759784804E+02  0.17770000000E+01 0. -1.
</event>
<event>
 7    1  0.2537562E-007  0.1413698E+03  0.7546771E-02  0.1106916E+00
        -11   -1    0    0    0    0  0.00000000000E+00  0.00000000000E+00  0.18250000000E+03  0.18250000000E+03  0.00000000000E+00 0.  1.
         11   -1    0    0    0    0 -0.00000000000E+00 -0.00000000000E+00 -0.18250000000E+03  0.18250000000E+03  0.00000000000E+00 0. -1.
         23    2    1    2    0    0 -0.40208497966E+02 -0.21661615110E+02  0.63288811408E+02  0.11874031265E+03  0.89486531503E+02 0.  0.
        -11    1    1    2    0    0  0.49281638538E+02 -0.27037333306E+02  0.78224638040E+02  0.96326482786E+02  0.00000000000E+00 0.  1.
         11    1    1    2    0    0 -0.90731405720E+01  0.48698948417E+02 -0.14151344945E+03  0.14993320457E+03  0.00000000000E+00 0. -1.
        -15    1    3    3    0    0 -0.66470629850E+02 -0.95789466500E+00  0.36531049356E+02  0.75874485112E+02  0.17770000000E+01 0. -1.
         15    1    3    3    0    0  0.26262131884E+02 -0.20703720445E+02  0.26757762052E+02  0.42865827537E+02  0.17770000000E+01 0.  1.
</event>
<event>
 7    1  0.2537562E-007  0.1338437E+03  0.7546771E-02  0.1115526E+00
        -11   -1    0    0    0    0  0.00000000000E+00  0.00000000000E+00  0.18250000000E+03  0.18250000000E+03  0.00000000000E+00 0. -1.
         11   -1    0    0    0    0 -0.00000000000E+00 -0.00000000000E+00 -0.18250000000E+03  0.18250000000E+03  0.00000000000E+00 0.  1.
         23    2    1    2    0    0 -0.33260929572E+00 -0.26138833213E+02 -0.92184537057E+01  0.95881232274E+02  0.91787153693E+02 0.  0.
        -11    1    1    2    0    0 -0.77510433531E+02 -0.62311100756E+02  0.83479291391E+02  0.12984349300E+03  0.00000000000E+00 0. -1.
         11    1    1    2    0    0  0.77843042827E+02  0.88449933969E+02 -0.74260837686E+02  0.13927527472E+03  0.00000000000E+00 0.  1.
        -15    1    3    3    0    0  0.17797972154E+02 -0.10640142624E+02 -0.46865458815E+02  0.51278742250E+02  0.17770000000E+01 0.  1.
         15    1    3    3    0    0 -0.18130581449E+02 -0.15498690589E+02  0.37647005109E+02  0.44602490024E+02  0.17770000000E+01 0. -1.
</event>
<event>
 7    1  0.2537562E-007  0.1717478E+03  0.7546771E-02  0.1077351E+00
        -11   -1    0    0    0    0  0.00000000000E+00  0.00000000000E+00  0.18250000000E+03  0.18250000000E+03  0.00000000000E+00 0. -1.
         11   -1    0    0    0    0 -0.00000000000E+00 -0.00000000000E+00 -0.18250000000E+03  0.18250000000E+03  0.00000000000E+00 0. -1.
         23    2    1    2    0    0  0.50937166636E+02 -0.16909398641E+02  0.14991952194E+03  0.18335961883E+03  0.90908547751E+02 0.  0.
        -11    1    1    2    0    0 -0.60815551690E+02  0.42907540772E+02 -0.11525618422E+03  0.13719903930E+03  0.00000000000E+00 0. -1.
         11    1    1    2    0    0  0.98783850534E+01 -0.25998142131E+02 -0.34663337713E+02  0.44441341867E+02  0.00000000000E+00 0. -1.
        -15    1    3    3    0    0 -0.24380625118E+01  0.29920527581E+02  0.71432144431E+02  0.77504136061E+02  0.17770000000E+01 0. -1.
         15    1    3    3    0    0  0.53375229148E+02 -0.46829926222E+02  0.78487377506E+02  0.10585548277E+03  0.17770000000E+01 0.  1.
</event>
<event>
 7    1  0.2537562E-007  0.1418102E+03  0.7546771E-02  0.1106430E+00
        -11   -1    0    0    0    0  0.00000000000E+00  0.00000000000E+00  0.18250000000E+03  0.18250000000E+03  0.00000000000E+00 0. -1.
         11   -1    0    0    0    0 -0.00000000000E+00 -0.00000000000E+00 -0.18250000000E+03  0.18250000000E+03  0.00000000000E+00 0. -1.
         23    2    1    2    0    0  0.22700359454E+02  0.68544735068E+01  0.82016290282E+02  0.12409787161E+03  0.90062865495E+02 0.  0.
        -11    1    1    2    0    0  0.25465223792E+02 -0.88229596514E+02  0.27834932077E+02  0.95956879730E+02  0.00000000000E+00 0. -1.
         11    1    1    2    0    0 -0.48165583246E+02  0.81375123008E+02 -0.10985122236E+03  0.14494524866E+03  0.00000000000E+00 0. -1.
        -15    1    3    3    0    0 -0.11656331607E+02 -0.31584734234E+02  0.58244388304E+02  0.67298083190E+02  0.17770000000E+01 0.  1.
         15    1    3    3    0    0  0.34356691062E+02  0.38439207740E+02  0.23771901978E+02  0.56799788425E+02  0.17770000000E+01 0. -1.
</event>
<event>
 7    1  0.2537562E-007  0.1438713E+03  0.7546771E-02  0.1104184E+00
        -11   -1    0    0    0    0  0.00000000000E+00  0.00000000000E+00  0.18250000000E+03  0.18250000000E+03  0.00000000000E+00 0.  1.
         11   -1    0    0    0    0 -0.00000000000E+00 -0.00000000000E+00 -0.18250000000E+03  0.18250000000E+03  0.00000000000E+00 0. -1.
         23    2    1    2    0    0 -0.14576816369E+02 -0.23825107342E+02 -0.86774370157E+02  0.13585744993E+03  0.10073398666E+03 0.  0.
        -11    1    1    2    0    0 -0.63758000425E+02 -0.33117591696E+02  0.10827185446E+03  0.12994095569E+03  0.00000000000E+00 0.  1.
         11    1    1    2    0    0  0.78334816794E+02  0.56942699038E+02 -0.21497484305E+02  0.99201594379E+02  0.00000000000E+00 0. -1.
        -15    1    3    3    0    0  0.93895865286E+01 -0.55117919680E+02 -0.22202815201E+02  0.60185314961E+02  0.17770000000E+01 0.  1.
         15    1    3    3    0    0 -0.23966402898E+02  0.31292812339E+02 -0.64571554956E+02  0.75672134966E+02  0.17770000000E+01 0. -1.
</event>
<event>
 7    1  0.2537562E-007  0.1448421E+03  0.7546771E-02  0.1103140E+00
        -11   -1    0    0    0    0  0.00000000000E+00  0.00000000000E+00  0.18250000000E+03  0.18250000000E+03  0.00000000000E+00 0. -1.
         11   -1    0    0    0    0 -0.00000000000E+00 -0.00000000000E+00 -0.18250000000E+03  0.18250000000E+03  0.00000000000E+00 0. -1.
         23    2    1    2    0    0  0.61761030593E+01  0.18240985678E+02  0.93694131995E+02  0.13259798968E+03  0.91830053300E+02 0.  0.
        -11    1    1    2    0    0 -0.83148911619E+02  0.38666323566E+02  0.88451861968E+01  0.92125259296E+02  0.00000000000E+00 0. -1.
         11    1    1    2    0    0  0.76972808559E+02 -0.56907309244E+02 -0.10253931819E+03  0.14027675103E+03  0.00000000000E+00 0. -1.
        -15    1    3    3    0    0 -0.25006175151E+02  0.44841673873E+02  0.40479785659E+02  0.65405315437E+02  0.17770000000E+01 0.  1.
         15    1    3    3    0    0  0.31182278210E+02 -0.26600688195E+02  0.53214346336E+02  0.67192674242E+02  0.17770000000E+01 0. -1.
</event>
<event>
 7    1  0.2537562E-007  0.1629128E+03  0.7546771E-02  0.1085212E+00
        -11   -1    0    0    0    0  0.00000000000E+00  0.00000000000E+00  0.18250000000E+03  0.18250000000E+03  0.00000000000E+00 0. -1.
         11   -1    0    0    0    0 -0.00000000000E+00 -0.00000000000E+00 -0.18250000000E+03  0.18250000000E+03  0.00000000000E+00 0.  1.
         23    2    1    2    0    0 -0.52707396041E+02 -0.82192071353E+02 -0.51832509464E+02  0.14347720168E+03  0.91463064531E+02 0.  0.
        -11    1    1    2    0    0  0.10983575684E+03  0.93561231703E+02  0.70189666775E+02  0.16044995133E+03  0.00000000000E+00 0. -1.
         11    1    1    2    0    0 -0.57128360804E+02 -0.11369160351E+02 -0.18357157312E+02  0.61072846992E+02  0.00000000000E+00 0.  1.
        -15    1    3    3    0    0 -0.48411057689E+02 -0.15858214215E+02  0.10826259742E+02  0.52110259006E+02  0.17770000000E+01 0. -1.
         15    1    3    3    0    0 -0.42963383522E+01 -0.66333857138E+02 -0.62658769205E+02  0.91366942673E+02  0.17770000000E+01 0.  1.
</event>
<event>
 7    1  0.2537562E-007  0.1877377E+03  0.7546771E-02  0.1064360E+00
        -11   -1    0    0    0    0  0.00000000000E+00  0.00000000000E+00  0.18250000000E+03  0.18250000000E+03  0.00000000000E+00 0.  1.
         11   -1    0    0    0    0 -0.00000000000E+00 -0.00000000000E+00 -0.18250000000E+03  0.18250000000E+03  0.00000000000E+00 0.  1.
         23    2    1    2    0    0 -0.41709464381E+02  0.62084484106E+01  0.15885956127E+03  0.19097666005E+03  0.97249679831E+02 0.  0.
        -11    1    1    2    0    0  0.53016141116E+02 -0.60447403120E+00 -0.14854996836E+03  0.15772815128E+03  0.00000000000E+00 0.  1.
         11    1    1    2    0    0 -0.11306676735E+02 -0.56039743794E+01 -0.10309592911E+02  0.16295188665E+02  0.00000000000E+00 0.  1.
        -15    1    3    3    0    0  0.20784531049E+01 -0.20806023459E+02  0.13054843971E+03  0.13222429209E+03  0.17770000000E+01 0.  1.
         15    1    3    3    0    0 -0.43787917486E+02  0.27014471869E+02  0.28311121562E+02  0.58752367963E+02  0.17770000000E+01 0. -1.
</event>
<event>
 7    1  0.2537562E-007  0.2183377E+03  0.7546771E-02  0.1043041E+00
        -11   -1    0    0    0    0  0.00000000000E+00  0.00000000000E+00  0.18250000000E+03  0.18250000000E+03  0.00000000000E+00 0.  1.
         11   -1    0    0    0    0 -0.00000000000E+00 -0.00000000000E+00 -0.18250000000E+03  0.18250000000E+03  0.00000000000E+00 0. -1.
         23    2    1    2    0    0  0.42294906700E+01 -0.18288158704E+02  0.45827975951E+02  0.10334118221E+03  0.90701991276E+02 0.  0.
        -11    1    1    2    0    0 -0.91978354208E+02 -0.93959427927E+01  0.68380470294E+02  0.11499647865E+03  0.00000000000E+00 0.  1.
         11    1    1    2    0    0  0.87748863538E+02  0.27684101497E+02 -0.11420844625E+03  0.14666233914E+03  0.00000000000E+00 0. -1.
        -15    1    3    3    0    0 -0.30617021180E+02  0.15752975116E+02  0.42151509013E+02  0.54456089210E+02  0.17770000000E+01 0.  1.
         15    1    3    3    0    0  0.34846511850E+02 -0.34041133820E+02  0.36764669378E+01  0.48885093004E+02  0.17770000000E+01 0. -1.
</event>
<event>
 7    1  0.2537562E-007  0.2175609E+03  0.7546771E-02  0.1043534E+00
        -11   -1    0    0    0    0  0.00000000000E+00  0.00000000000E+00  0.18250000000E+03  0.18250000000E+03  0.00000000000E+00 0.  1.
         11   -1    0    0    0    0 -0.00000000000E+00 -0.00000000000E+00 -0.18250000000E+03  0.18250000000E+03  0.00000000000E+00 0. -1.
         23    2    1    2    0    0 -0.49535887099E+02 -0.16389817147E+02  0.17115813794E+02  0.10693054559E+03  0.91753802549E+02 0.  0.
        -11    1    1    2    0    0 -0.14179605975E+02 -0.91117037339E+02  0.61120369664E+02  0.11063035436E+03  0.00000000000E+00 0.  1.
         11    1    1    2    0    0  0.63715493074E+02  0.10750685449E+03 -0.78236183458E+02  0.14743910004E+03  0.00000000000E+00 0. -1.
        -15    1    3    3    0    0 -0.31050067250E+02 -0.20933713387E+02 -0.35080307785E+02  0.51343088685E+02  0.17770000000E+01 0. -1.
         15    1    3    3    0    0 -0.18485819848E+02  0.45438962393E+01  0.52196121580E+02  0.55587456908E+02  0.17770000000E+01 0.  1.
</event>
<event>
 7    1  0.2537562E-007  0.1893355E+03  0.7546771E-02  0.1063140E+00
        -11   -1    0    0    0    0  0.00000000000E+00  0.00000000000E+00  0.18250000000E+03  0.18250000000E+03  0.00000000000E+00 0.  1.
         11   -1    0    0    0    0 -0.00000000000E+00 -0.00000000000E+00 -0.18250000000E+03  0.18250000000E+03  0.00000000000E+00 0.  1.
         23    2    1    2    0    0  0.31230096835E+02  0.91935082833E+01  0.16237909027E+03  0.18933553969E+03  0.91766759182E+02 0.  0.
        -11    1    1    2    0    0  0.16567505725E+02  0.46784192850E+01 -0.39474090730E+02  0.43064761603E+02  0.00000000000E+00 0.  1.
         11    1    1    2    0    0 -0.47797602559E+02 -0.13871927568E+02 -0.12290499954E+03  0.13259969871E+03  0.00000000000E+00 0.  1.
        -15    1    3    3    0    0 -0.14013987861E+02  0.10502923036E+02 -0.30073541714E+01  0.17857915785E+02  0.17770000000E+01 0. -1.
         15    1    3    3    0    0  0.45244084695E+02 -0.13094147532E+01  0.16538644444E+03  0.17147762391E+03  0.17770000000E+01 0.  1.
</event>
<event>
 7    1  0.2537562E-007  0.1840735E+03  0.7546771E-02  0.1067209E+00
        -11   -1    0    0    0    0  0.00000000000E+00  0.00000000000E+00  0.18250000000E+03  0.18250000000E+03  0.00000000000E+00 0. -1.
         11   -1    0    0    0    0 -0.00000000000E+00 -0.00000000000E+00 -0.18250000000E+03  0.18250000000E+03  0.00000000000E+00 0. -1.
         23    2    1    2    0    0  0.23590968269E+02 -0.18375246684E+02  0.14804203517E+03  0.17594460539E+03  0.90254509669E+02 0.  0.
        -11    1    1    2    0    0  0.58816323083E+01  0.60543465826E+01  0.18046399133E+02  0.19922882142E+02  0.00000000000E+00 0. -1.
         11    1    1    2    0    0 -0.29472600577E+02  0.12320900101E+02 -0.16608843430E+03  0.16913251247E+03  0.00000000000E+00 0. -1.
        -15    1    3    3    0    0  0.46983869578E+02  0.18640697718E+02  0.89695378152E+02  0.10297270611E+03  0.17770000000E+01 0.  1.
         15    1    3    3    0    0 -0.23392901309E+02 -0.37015944402E+02  0.58346657016E+02  0.72971899287E+02  0.17770000000E+01 0. -1.
</event>
<event>
 7    1  0.2537562E-007  0.1611681E+03  0.7546771E-02  0.1086829E+00
        -11   -1    0    0    0    0  0.00000000000E+00  0.00000000000E+00  0.18250000000E+03  0.18250000000E+03  0.00000000000E+00 0.  1.
         11   -1    0    0    0    0 -0.00000000000E+00 -0.00000000000E+00 -0.18250000000E+03  0.18250000000E+03  0.00000000000E+00 0. -1.
         23    2    1    2    0    0  0.66117649344E+02  0.87742349884E+01  0.11599506299E+03  0.16265494598E+03  0.92483761052E+02 0.  0.
        -11    1    1    2    0    0 -0.48240115147E+02  0.41886422040E+02  0.10657142118E+02  0.64770021915E+02  0.00000000000E+00 0.  1.
         11    1    1    2    0    0 -0.17877534197E+02 -0.50660657029E+02 -0.12665220511E+03  0.13757503211E+03  0.00000000000E+00 0. -1.
        -15    1    3    3    0    0  0.12342456882E+02  0.27716631991E+02 -0.31538380595E+01  0.30555725393E+02  0.17770000000E+01 0. -1.
         15    1    3    3    0    0  0.53775192462E+02 -0.18942397002E+02  0.11914890105E+03  0.13209922059E+03  0.17770000000E+01 0.  1.
</event>
<event>
 6    1  0.2537562E-007  0.1867284E+03  0.7546771E-02  0.1065138E+00
        -11   -1    0    0    0    0  0.00000000000E+00  0.00000000000E+00  0.18250000000E+03  0.18250000000E+03  0.00000000000E+00 0.  1.
         11   -1    0    0    0    0 -0.00000000000E+00 -0.00000000000E+00 -0.18250000000E+03  0.18250000000E+03  0.00000000000E+00 0.  1.
        -11    1    1    2    0    0 -0.15089704338E+02  0.11704871231E+02 -0.19379790294E+02  0.27208077099E+02  0.00000000000E+00 0.  1.
         11    1    1    2    0    0  0.41724208173E+02  0.81658612127E+01 -0.15375030765E+03  0.15952036841E+03  0.00000000000E+00 0.  1.
        -15    1    1    2    0    0  0.37558133896E+00 -0.44480097873E+01  0.38729675053E+01  0.61711796852E+01  0.17770000000E+01 0. -1.
         15    1    1    2    0    0 -0.27010085173E+02 -0.15422722657E+02  0.16925713044E+03  0.17210037480E+03  0.17770000000E+01 0.  1.
</event>
<event>
 7    1  0.2537562E-007  0.1536774E+03  0.7546771E-02  0.1094036E+00
        -11   -1    0    0    0    0  0.00000000000E+00  0.00000000000E+00  0.18250000000E+03  0.18250000000E+03  0.00000000000E+00 0.  1.
         11   -1    0    0    0    0 -0.00000000000E+00 -0.00000000000E+00 -0.18250000000E+03  0.18250000000E+03  0.00000000000E+00 0.  1.
         23    2    1    2    0    0  0.39509764748E+02 -0.10128357943E+03  0.69882949821E+02  0.15923122520E+03  0.93013823866E+02 0.  0.
        -11    1    1    2    0    0 -0.10220385698E+03  0.63656488360E+02 -0.42317774866E+02  0.12762668593E+03  0.00000000000E+00 0.  1.
         11    1    1    2    0    0  0.62694092227E+02  0.37627091074E+02 -0.27565174955E+02  0.78142088872E+02  0.00000000000E+00 0.  1.
        -15    1    3    3    0    0  0.61951549830E+02 -0.87169500634E+02  0.29603980090E+02  0.11097778937E+03  0.17770000000E+01 0.  1.
         15    1    3    3    0    0 -0.22441785082E+02 -0.14114078800E+02  0.40278969731E+02  0.48253435832E+02  0.17770000000E+01 0. -1.
</event>
<event>
 7    1  0.2537562E-007  0.1826960E+03  0.7546771E-02  0.1068299E+00
        -11   -1    0    0    0    0  0.00000000000E+00  0.00000000000E+00  0.18250000000E+03  0.18250000000E+03  0.00000000000E+00 0. -1.
         11   -1    0    0    0    0 -0.00000000000E+00 -0.00000000000E+00 -0.18250000000E+03  0.18250000000E+03  0.00000000000E+00 0. -1.
         23    2    1    2    0    0  0.18740725469E+01 -0.18846442786E+02  0.15227659878E+03  0.17888993539E+03  0.91949692192E+02 0.  0.
        -11    1    1    2    0    0 -0.18473662759E+02 -0.13376513178E+02  0.61233487481E+01  0.23615730359E+02  0.00000000000E+00 0. -1.
         11    1    1    2    0    0  0.16599590212E+02  0.32222955964E+02 -0.15839994753E+03  0.16249433425E+03  0.00000000000E+00 0. -1.
        -15    1    3    3    0    0  0.40954132463E+02 -0.84639048455E+01  0.34147781648E+02  0.54019509175E+02  0.17770000000E+01 0.  1.
         15    1    3    3    0    0 -0.39080059916E+02 -0.10382537940E+02  0.11812881713E+03  0.12487042622E+03  0.17770000000E+01 0. -1.
</event>
<event>
 7    1  0.2537562E-007  0.1770387E+03  0.7546771E-02  0.1072887E+00
        -11   -1    0    0    0    0  0.00000000000E+00  0.00000000000E+00  0.18250000000E+03  0.18250000000E+03  0.00000000000E+00 0.  1.
         11   -1    0    0    0    0 -0.00000000000E+00 -0.00000000000E+00 -0.18250000000E+03  0.18250000000E+03  0.00000000000E+00 0.  1.
         23    2    1    2    0    0  0.63899715747E+02  0.84653784443E+00 -0.14691207030E+03  0.17059931519E+03  0.58626612089E+02 0.  0.
        -11    1    1    2    0    0 -0.56766210886E+02  0.65264293754E+01  0.16444354232E+03  0.17408812593E+03  0.00000000000E+00 0.  1.
         11    1    1    2    0    0 -0.71335048617E+01 -0.73729672199E+01 -0.17531472020E+02  0.20312558884E+02  0.00000000000E+00 0.  1.
        -15    1    3    3    0    0  0.52457622649E+02  0.21292524882E+02 -0.69272020077E+02  0.89481530409E+02  0.17770000000E+01 0. -1.
         15    1    3    3    0    0  0.11442093099E+02 -0.20445987037E+02 -0.77640050220E+02  0.81117784780E+02  0.17770000000E+01 0.  1.
</event>
<event>
 7    1  0.4023404E-007  0.1704084E+03  0.7546771E-02  0.1078509E+00
        -11   -1    0    0    0    0  0.00000000000E+00  0.00000000000E+00  0.18250000000E+03  0.18250000000E+03  0.00000000000E+00 0.  1.
         11   -1    0    0    0    0 -0.00000000000E+00 -0.00000000000E+00 -0.18250000000E+03  0.18250000000E+03  0.00000000000E+00 0. -1.
         23    2    1    2    0    0 -0.82672929948E+01  0.53070863165E+02  0.12037864802E+03  0.16270051091E+03  0.95370711962E+02 0.  0.
        -11    1    1    2    0    0  0.39651752606E+02 -0.16383284378E+02  0.24626134835E+02  0.49468373823E+02  0.00000000000E+00 0.  1.
         11    1    1    2    0    0 -0.31384459611E+02 -0.36687578788E+02 -0.14500478286E+03  0.15283111527E+03  0.00000000000E+00 0. -1.
        -15    1    3    3    0    0 -0.78088890326E+01  0.30390998755E+02  0.13301204305E+03  0.13667462413E+03  0.17770000000E+01 0.  1.
         15    1    3    3    0    0 -0.45840396219E+00  0.22679864411E+02 -0.12633395032E+02  0.26025886785E+02  0.17770000000E+01 0. -1.
</event>
<event>
 7    1  0.2537562E-007  0.1344758E+03  0.7546771E-02  0.1114779E+00
        -11   -1    0    0    0    0  0.00000000000E+00  0.00000000000E+00  0.18250000000E+03  0.18250000000E+03  0.00000000000E+00 0. -1.
         11   -1    0    0    0    0 -0.00000000000E+00 -0.00000000000E+00 -0.18250000000E+03  0.18250000000E+03  0.00000000000E+00 0. -1.
         23    2    1    2    0    0  0.38905462249E+02 -0.75256634897E+02 -0.69515655495E+02  0.14204487083E+03  0.90372135537E+02 0.  0.
        -11    1    1    2    0    0  0.38496073538E+02  0.10885552427E+03  0.29828844516E+01  0.11550052139E+03  0.00000000000E+00 0. -1.
         11    1    1    2    0    0 -0.77401535787E+02 -0.33598889377E+02  0.66532771043E+02  0.10745460778E+03  0.00000000000E+00 0. -1.
        -15    1    3    3    0    0  0.43238820357E+02 -0.43180231268E+02 -0.86128665895E+02  0.10561928222E+03  0.17770000000E+01 0. -1.
         15    1    3    3    0    0 -0.43333581071E+01 -0.32076403629E+02  0.16613010401E+02  0.36425588613E+02  0.17770000000E+01 0.  1.
</event>
<event>
 7    1  0.2537562E-007  0.1921828E+03  0.7546771E-02  0.1060998E+00
        -11   -1    0    0    0    0  0.00000000000E+00  0.00000000000E+00  0.18250000000E+03  0.18250000000E+03  0.00000000000E+00 0.  1.
         11   -1    0    0    0    0 -0.00000000000E+00 -0.00000000000E+00 -0.18250000000E+03  0.18250000000E+03  0.00000000000E+00 0. -1.
         23    2    1    2    0    0  0.33543623062E+01 -0.32345248274E+02  0.16658586956E+03  0.19218279793E+03  0.90143824260E+02 0.  0.
        -11    1    1    2    0    0  0.22844061444E+01  0.31767978945E+02 -0.16306078510E+03  0.16614223615E+03  0.00000000000E+00 0. -1.
         11    1    1    2    0    0 -0.56387684506E+01  0.57726932895E+00 -0.35250844593E+01  0.66749659147E+01  0.00000000000E+00 0.  1.
        -15    1    3    3    0    0 -0.34991296363E+02 -0.18451682875E+02  0.13464919171E+03  0.14035105265E+03  0.17770000000E+01 0.  1.
         15    1    3    3    0    0  0.38345658669E+02 -0.13893565399E+02  0.31936677847E+02  0.51831745284E+02  0.17770000000E+01 0. -1.
</event>
<event>
 7    1  0.2537562E-007  0.1528733E+03  0.7546771E-02  0.1094837E+00
        -11   -1    0    0    0    0  0.00000000000E+00  0.00000000000E+00  0.18250000000E+03  0.18250000000E+03  0.00000000000E+00 0. -1.
         11   -1    0    0    0    0 -0.00000000000E+00 -0.00000000000E+00 -0.18250000000E+03  0.18250000000E+03  0.00000000000E+00 0.  1.
         23    2    1    2    0    0 -0.54518228319E+02  0.40077743158E+02  0.84374211233E+02  0.14132926405E+03  0.90975219917E+02 0.  0.
        -11    1    1    2    0    0  0.94718550481E+01  0.76995211878E+02 -0.11013089496E+02  0.78353473633E+02  0.00000000000E+00 0. -1.
         11    1    1    2    0    0  0.45046373271E+02 -0.11707295504E+03 -0.73361121737E+02  0.14531726232E+03  0.00000000000E+00 0.  1.
        -15    1    3    3    0    0 -0.12563010545E+02  0.91705939233E+01 -0.19557615869E+02  0.25051688453E+02  0.17770000000E+01 0.  1.
         15    1    3    3    0    0 -0.41955217774E+02  0.30907149235E+02  0.10393182710E+03  0.11627757559E+03  0.17770000000E+01 0. -1.
</event>
<event>
 7    1  0.2537562E-007  0.1443584E+03  0.7546771E-02  0.1103659E+00
        -11   -1    0    0    0    0  0.00000000000E+00  0.00000000000E+00  0.18250000000E+03  0.18250000000E+03  0.00000000000E+00 0.  1.
         11   -1    0    0    0    0 -0.00000000000E+00 -0.00000000000E+00 -0.18250000000E+03  0.18250000000E+03  0.00000000000E+00 0.  1.
         23    2    1    2    0    0 -0.51823217690E+02  0.61832285282E+02 -0.41876237489E+02  0.14155803542E+03  0.10851811246E+03 0.  0.
        -11    1    1    2    0    0 -0.41623202238E+02 -0.71640978506E+02  0.86190589155E+02  0.11955642360E+03  0.00000000000E+00 0.  1.
         11    1    1    2    0    0  0.93446419928E+02  0.98086932244E+01 -0.44314351666E+02  0.10388554097E+03  0.00000000000E+00 0.  1.
        -15    1    3    3    0    0 -0.85203050502E+02  0.38025920700E+02 -0.36348790715E+02  0.10014950212E+03  0.17770000000E+01 0.  1.
         15    1    3    3    0    0  0.33379832813E+02  0.23806364582E+02 -0.55274467746E+01  0.41408533300E+02  0.17770000000E+01 0. -1.
</event>
<event>
 7    1  0.2537562E-007  0.1574568E+03  0.7546771E-02  0.1090345E+00
        -11   -1    0    0    0    0  0.00000000000E+00  0.00000000000E+00  0.18250000000E+03  0.18250000000E+03  0.00000000000E+00 0.  1.
         11   -1    0    0    0    0 -0.00000000000E+00 -0.00000000000E+00 -0.18250000000E+03  0.18250000000E+03  0.00000000000E+00 0.  1.
         23    2    1    2    0    0 -0.99225520503E+02 -0.79872539193E+01  0.71319638703E+02  0.15259243889E+03  0.91040987462E+02 0.  0.
        -11    1    1    2    0    0  0.13665743437E+03 -0.29247267561E+02 -0.24586511180E+02  0.14189839168E+03  0.00000000000E+00 0.  1.
         11    1    1    2    0    0 -0.37431913869E+02  0.37234521480E+02 -0.46733127523E+02  0.70509169431E+02  0.00000000000E+00 0.  1.
        -15    1    3    3    0    0 -0.67336974828E+02  0.14480587419E+02 -0.26478540653E+01  0.68950159182E+02  0.17770000000E+01 0.  1.
         15    1    3    3    0    0 -0.31888545674E+02 -0.22467841339E+02  0.73967492768E+02  0.83642279710E+02  0.17770000000E+01 0. -1.
</event>
<event>
 7    1  0.2537562E-007  0.1315531E+03  0.7546771E-02  0.1118271E+00
        -11   -1    0    0    0    0  0.00000000000E+00  0.00000000000E+00  0.18250000000E+03  0.18250000000E+03  0.00000000000E+00 0.  1.
         11   -1    0    0    0    0 -0.00000000000E+00 -0.00000000000E+00 -0.18250000000E+03  0.18250000000E+03  0.00000000000E+00 0. -1.
         23    2    1    2    0    0  0.80805330994E+01 -0.44548076495E+02  0.43823916796E+02  0.94453750481E+02  0.70364402662E+02 0.  0.
        -11    1    1    2    0    0  0.35906407528E+02  0.10643074580E+03  0.71006489095E+02  0.13288602352E+03  0.00000000000E+00 0.  1.
         11    1    1    2    0    0 -0.43986940628E+02 -0.61882669303E+02 -0.11483040589E+03  0.13766022600E+03  0.00000000000E+00 0. -1.
        -15    1    3    3    0    0  0.35454922409E+02 -0.43474922776E+02  0.27338607819E+02  0.62431383453E+02  0.17770000000E+01 0. -1.
         15    1    3    3    0    0 -0.27374389309E+02 -0.10731537186E+01  0.16485308977E+02  0.32022367027E+02  0.17770000000E+01 0.  1.
</event>
<event>
 7    1  0.2537562E-007  0.2211950E+03  0.7546771E-02  0.1041246E+00
        -11   -1    0    0    0    0  0.00000000000E+00  0.00000000000E+00  0.18250000000E+03  0.18250000000E+03  0.00000000000E+00 0.  1.
         11   -1    0    0    0    0 -0.00000000000E+00 -0.00000000000E+00 -0.18250000000E+03  0.18250000000E+03  0.00000000000E+00 0.  1.
         23    2    1    2    0    0  0.21464174503E+02  0.17880691931E+02  0.11123438439E+02  0.95495679393E+02  0.90638093365E+02 0.  0.
        -11    1    1    2    0    0  0.10816838431E+03 -0.46237277389E+02  0.44294828371E+02  0.12569931187E+03  0.00000000000E+00 0.  1.
         11    1    1    2    0    0 -0.12963255881E+03  0.28356585458E+02 -0.55418266810E+02  0.14380500874E+03  0.00000000000E+00 0.  1.
        -15    1    3    3    0    0 -0.14117190546E+02  0.90922631818E+01 -0.33624882490E+02  0.37626516848E+02  0.17770000000E+01 0. -1.
         15    1    3    3    0    0  0.35581365049E+02  0.87884287494E+01  0.44748320929E+02  0.57869162544E+02  0.17770000000E+01 0.  1.
</event>
<event>
 7    1  0.2537562E-007  0.1873366E+03  0.7546771E-02  0.1064669E+00
        -11   -1    0    0    0    0  0.00000000000E+00  0.00000000000E+00  0.18250000000E+03  0.18250000000E+03  0.00000000000E+00 0.  1.
         11   -1    0    0    0    0 -0.00000000000E+00 -0.00000000000E+00 -0.18250000000E+03  0.18250000000E+03  0.00000000000E+00 0. -1.
         23    2    1    2    0    0 -0.37140363213E+02 -0.20400976383E+02  0.15505117331E+03  0.18481687728E+03  0.91218448601E+02 0.  0.
        -11    1    1    2    0    0 -0.12842981550E+02 -0.46554055594E+01  0.16930737433E+01  0.13765227013E+02  0.00000000000E+00 0.  1.
         11    1    1    2    0    0  0.49983344763E+02  0.25056381942E+02 -0.15674424705E+03  0.16641789571E+03  0.00000000000E+00 0. -1.
        -15    1    3    3    0    0  0.25470655241E+02 -0.27423776737E+02  0.61449690196E+02  0.71972494490E+02  0.17770000000E+01 0. -1.
         15    1    3    3    0    0 -0.62611018455E+02  0.70228003544E+01  0.93601483111E+02  0.11284438279E+03  0.17770000000E+01 0.  1.
</event>
<event>
 7    1  0.2537562E-007  0.1893194E+03  0.7546771E-02  0.1063153E+00
        -11   -1    0    0    0    0  0.00000000000E+00  0.00000000000E+00  0.18250000000E+03  0.18250000000E+03  0.00000000000E+00 0. -1.
         11   -1    0    0    0    0 -0.00000000000E+00 -0.00000000000E+00 -0.18250000000E+03  0.18250000000E+03  0.00000000000E+00 0.  1.
         23    2    1    2    0    0  0.15131454053E+02 -0.54767875791E+01  0.16488652976E+03  0.18943262726E+03  0.91859656387E+02 0.  0.
        -11    1    1    2    0    0  0.30488529896E+00 -0.99653539165E+01 -0.76446425432E+00  0.99992819403E+01  0.00000000000E+00 0. -1.
         11    1    1    2    0    0 -0.15436339352E+02  0.15442141496E+02 -0.16412206550E+03  0.16556809080E+03  0.00000000000E+00 0.  1.
        -15    1    3    3    0    0 -0.14386706165E+02  0.10624642014E+02  0.15250026005E+03  0.15355568169E+03  0.17770000000E+01 0. -1.
         15    1    3    3    0    0  0.29518160218E+02 -0.16101429593E+02  0.12386269702E+02  0.35876945574E+02  0.17770000000E+01 0.  1.
</event>
<event>
 7    1  0.2537562E-007  0.1564959E+03  0.7546771E-02  0.1091272E+00
        -11   -1    0    0    0    0  0.00000000000E+00  0.00000000000E+00  0.18250000000E+03  0.18250000000E+03  0.00000000000E+00 0.  1.
         11   -1    0    0    0    0 -0.00000000000E+00 -0.00000000000E+00 -0.18250000000E+03  0.18250000000E+03  0.00000000000E+00 0. -1.
         23    2    1    2    0    0 -0.80583964256E+02  0.78155830323E+02 -0.54672186871E+02  0.15436615297E+03  0.90762062867E+02 0.  0.
        -11    1    1    2    0    0  0.62346986930E+02 -0.44327690869E+02  0.11558715967E+03  0.13860909940E+03  0.00000000000E+00 0.  1.
         11    1    1    2    0    0  0.18236977326E+02 -0.33828139454E+02 -0.60914972795E+02  0.72024747632E+02  0.00000000000E+00 0. -1.
        -15    1    3    3    0    0 -0.66844162134E+02  0.69085343400E+02  0.11361651882E+01  0.96152874551E+02  0.17770000000E+01 0. -1.
         15    1    3    3    0    0 -0.13739802123E+02  0.90704869227E+01 -0.55808352060E+02  0.58213278416E+02  0.17770000000E+01 0.  1.
</event>
<event>
 7    1  0.2537562E-007  0.1580422E+03  0.7546771E-02  0.1089783E+00
        -11   -1    0    0    0    0  0.00000000000E+00  0.00000000000E+00  0.18250000000E+03  0.18250000000E+03  0.00000000000E+00 0. -1.
         11   -1    0    0    0    0 -0.00000000000E+00 -0.00000000000E+00 -0.18250000000E+03  0.18250000000E+03  0.00000000000E+00 0. -1.
         23    2    1    2    0    0  0.30661818214E+02  0.31673905004E+02  0.11436248022E+03  0.15477942228E+03  0.94522533426E+02 0.  0.
        -11    1    1    2    0    0  0.51026020826E+02 -0.49899549030E+02 -0.36916647472E+01  0.71465013701E+02  0.00000000000E+00 0. -1.
         11    1    1    2    0    0 -0.81687839040E+02  0.18225644026E+02 -0.11067081548E+03  0.13875556402E+03  0.00000000000E+00 0. -1.
        -15    1    3    3    0    0 -0.27120825425E+02  0.20817421571E+02  0.11190602327E+02  0.36017933340E+02  0.17770000000E+01 0.  1.
         15    1    3    3    0    0  0.57782643639E+02  0.10856483432E+02  0.10317187790E+03  0.11876148894E+03  0.17770000000E+01 0. -1.
</event>
<event>
 7    1  0.2537562E-007  0.1438758E+03  0.7546771E-02  0.1104179E+00
        -11   -1    0    0    0    0  0.00000000000E+00  0.00000000000E+00  0.18250000000E+03  0.18250000000E+03  0.00000000000E+00 0.  1.
         11   -1    0    0    0    0 -0.00000000000E+00 -0.00000000000E+00 -0.18250000000E+03  0.18250000000E+03  0.00000000000E+00 0.  1.
         23    2    1    2    0    0  0.60213911543E+02  0.77540417963E+02  0.53869443577E+02  0.14335068890E+03  0.89494533333E+02 0.  0.
        -11    1    1    2    0    0 -0.85235051016E+02  0.16112911196E+02  0.31691412906E+02  0.92352506631E+02  0.00000000000E+00 0.  1.
         11    1    1    2    0    0  0.25021139473E+02 -0.93653329159E+02 -0.85560856483E+02  0.12929680447E+03  0.00000000000E+00 0.  1.
        -15    1    3    3    0    0  0.68111310552E+01  0.38388204904E+02 -0.20229699482E+02  0.43959575204E+02  0.17770000000E+01 0. -1.
         15    1    3    3    0    0  0.53402780488E+02  0.39152213059E+02  0.74099143059E+02  0.99391113699E+02  0.17770000000E+01 0.  1.
</event>
<event>
 7    1  0.2537562E-007  0.1576222E+03  0.7546771E-02  0.1090186E+00
        -11   -1    0    0    0    0  0.00000000000E+00  0.00000000000E+00  0.18250000000E+03  0.18250000000E+03  0.00000000000E+00 0.  1.
         11   -1    0    0    0    0 -0.00000000000E+00 -0.00000000000E+00 -0.18250000000E+03  0.18250000000E+03  0.00000000000E+00 0. -1.
         23    2    1    2    0    0  0.16636827105E+02  0.65296655840E+02  0.97287208141E+02  0.15064474033E+03  0.93212658162E+02 0.  0.
        -11    1    1    2    0    0  0.33002555306E+02 -0.52094192614E+02  0.36073803329E+02  0.71444333908E+02  0.00000000000E+00 0.  1.
         11    1    1    2    0    0 -0.49639382412E+02 -0.13202463225E+02 -0.13336101147E+03  0.14291092576E+03  0.00000000000E+00 0. -1.
        -15    1    3    3    0    0  0.24457425611E+02  0.27338224678E+02 -0.87332302179E+01  0.37748791174E+02  0.17770000000E+01 0. -1.
         15    1    3    3    0    0 -0.78205985055E+01  0.37958431162E+02  0.10602043836E+03  0.11289594916E+03  0.17770000000E+01 0.  1.
</event>
<event>
 7    1  0.2537562E-007  0.1503512E+03  0.7546771E-02  0.1097383E+00
        -11   -1    0    0    0    0  0.00000000000E+00  0.00000000000E+00  0.18250000000E+03  0.18250000000E+03  0.00000000000E+00 0.  1.
         11   -1    0    0    0    0 -0.00000000000E+00 -0.00000000000E+00 -0.18250000000E+03  0.18250000000E+03  0.00000000000E+00 0.  1.
         23    2    1    2    0    0 -0.19676119047E+02 -0.60575381604E+01  0.15443964275E+03  0.17896750488E+03  0.88056351964E+02 0.  0.
        -11    1    1    2    0    0 -0.28931328195E+02 -0.30990037500E+02 -0.69006428580E+02  0.80989452157E+02  0.00000000000E+00 0.  1.
         11    1    1    2    0    0  0.48607447243E+02  0.37047575660E+02 -0.85433214174E+02  0.10504304296E+03  0.00000000000E+00 0.  1.
        -15    1    3    3    0    0  0.25140675614E+02  0.12720802551E+02  0.16480107109E+02  0.32689815649E+02  0.17770000000E+01 0. -1.
         15    1    3    3    0    0 -0.44816794661E+02 -0.18778340711E+02  0.13795953564E+03  0.14627768923E+03  0.17770000000E+01 0.  1.
</event>
<event>
 7    1  0.2537562E-007  0.1605725E+03  0.7546771E-02  0.1087386E+00
        -11   -1    0    0    0    0  0.00000000000E+00  0.00000000000E+00  0.18250000000E+03  0.18250000000E+03  0.00000000000E+00 0. -1.
         11   -1    0    0    0    0 -0.00000000000E+00 -0.00000000000E+00 -0.18250000000E+03  0.18250000000E+03  0.00000000000E+00 0. -1.
         23    2    1    2    0    0  0.39316933391E+02  0.82114171248E+00  0.90287766234E+02  0.14441314339E+03  0.10562565846E+03 0.  0.
        -11    1    1    2    0    0 -0.79269897054E+02  0.58654860323E+02 -0.10854326388E+03  0.14664838680E+03  0.00000000000E+00 0. -1.
         11    1    1    2    0    0  0.39952963663E+02 -0.59476002036E+02  0.18255497646E+02  0.73938469811E+02  0.00000000000E+00 0. -1.
        -15    1    3    3    0    0  0.52948505128E+02 -0.41306593807E+02  0.64563246137E+02  0.93173759010E+02  0.17770000000E+01 0. -1.
         15    1    3    3    0    0 -0.13631571738E+02  0.42127735519E+02  0.25724520097E+02  0.51239384376E+02  0.17770000000E+01 0.  1.
</event>
<event>
 7    1  0.2537562E-007  0.1664098E+03  0.7546771E-02  0.1082037E+00
        -11   -1    0    0    0    0  0.00000000000E+00  0.00000000000E+00  0.18250000000E+03  0.18250000000E+03  0.00000000000E+00 0.  1.
         11   -1    0    0    0    0 -0.00000000000E+00 -0.00000000000E+00 -0.18250000000E+03  0.18250000000E+03  0.00000000000E+00 0. -1.
         23    2    1    2    0    0 -0.36296806988E+02 -0.79351100480E+02  0.86336547896E+02  0.15244518369E+03  0.90396234335E+02 0.  0.
        -11    1    1    2    0    0 -0.31614421275E+02  0.14738897988E+02  0.41386620606E+02  0.54125401722E+02  0.00000000000E+00 0.  1.
         11    1    1    2    0    0  0.67911228263E+02  0.64612202492E+02 -0.12772316850E+03  0.15842941459E+03  0.00000000000E+00 0. -1.
        -15    1    3    3    0    0  0.17848254261E+01 -0.14378571923E+02  0.74829632852E+02  0.76240150932E+02  0.17770000000E+01 0.  1.
         15    1    3    3    0    0 -0.38081632414E+02 -0.64972528557E+02  0.11506915044E+02  0.76205032756E+02  0.17770000000E+01 0. -1.
</event>
<event>
 7    1  0.2537562E-007  0.1713629E+03  0.7546771E-02  0.1077683E+00
        -11   -1    0    0    0    0  0.00000000000E+00  0.00000000000E+00  0.18250000000E+03  0.18250000000E+03  0.00000000000E+00 0.  1.
         11   -1    0    0    0    0 -0.00000000000E+00 -0.00000000000E+00 -0.18250000000E+03  0.18250000000E+03  0.00000000000E+00 0.  1.
         23    2    1    2    0    0 -0.60479156542E+02  0.36665364714E+02  0.11108532747E+03  0.16061394128E+03  0.91950045176E+02 0.  0.
        -11    1    1    2    0    0 -0.18176856202E+02 -0.32446592464E+02  0.26625304530E+02  0.45739329960E+02  0.00000000000E+00 0.  1.
         11    1    1    2    0    0  0.78656012744E+02 -0.42187722501E+01 -0.13771063200E+03  0.15864672876E+03  0.00000000000E+00 0.  1.
        -15    1    3    3    0    0 -0.41392180692E+02 -0.60601031403E+01  0.20195131167E+01  0.41919847742E+02  0.17770000000E+01 0.  1.
         15    1    3    3    0    0 -0.19086975850E+02  0.42725467854E+02  0.10906581436E+03  0.11869409354E+03  0.17770000000E+01 0. -1.
</event>
<event>
 7    1  0.2537562E-007  0.1460407E+03  0.7546771E-02  0.1101864E+00
        -11   -1    0    0    0    0  0.00000000000E+00  0.00000000000E+00  0.18250000000E+03  0.18250000000E+03  0.00000000000E+00 0.  1.
         11   -1    0    0    0    0 -0.00000000000E+00 -0.00000000000E+00 -0.18250000000E+03  0.18250000000E+03  0.00000000000E+00 0. -1.
         23    2    1    2    0    0 -0.27007643084E+02  0.45161630860E+02  0.71760584536E+02  0.12717611353E+03  0.90858112862E+02 0.  0.
        -11    1    1    2    0    0  0.53267114258E+02 -0.13972835327E+02  0.70715638348E+02  0.89628829600E+02  0.00000000000E+00 0.  1.
         11    1    1    2    0    0 -0.26259471174E+02 -0.31188795533E+02 -0.14247622288E+03  0.14819505687E+03  0.00000000000E+00 0. -1.
        -15    1    3    3    0    0  0.32995348091E+02  0.24686313980E+02  0.33207454096E+02  0.52952807575E+02  0.17770000000E+01 0.  1.
         15    1    3    3    0    0 -0.60002991175E+02  0.20475316880E+02  0.38553130440E+02  0.74223305956E+02  0.17770000000E+01 0. -1.
</event>
<event>
 7    1  0.2537562E-007  0.1361357E+03  0.7546771E-02  0.1112839E+00
        -11   -1    0    0    0    0  0.00000000000E+00  0.00000000000E+00  0.18250000000E+03  0.18250000000E+03  0.00000000000E+00 0.  1.
         11   -1    0    0    0    0 -0.00000000000E+00 -0.00000000000E+00 -0.18250000000E+03  0.18250000000E+03  0.00000000000E+00 0.  1.
         23    2    1    2    0    0 -0.68690470693E+02 -0.32092492304E+02  0.89893638540E+02  0.14853767581E+03  0.90742856791E+02 0.  0.
        -11    1    1    2    0    0  0.10149310654E+03 -0.27449898740E+02 -0.17564689766E+01  0.10515432848E+03  0.00000000000E+00 0.  1.
         11    1    1    2    0    0 -0.32802635845E+02  0.59542391044E+02 -0.88137169564E+02  0.11130799571E+03  0.00000000000E+00 0.  1.
        -15    1    3    3    0    0 -0.54172642935E+02  0.17214727101E+02  0.76624542494E+02  0.95422745261E+02  0.17770000000E+01 0.  1.
         15    1    3    3    0    0 -0.14517827758E+02 -0.49307219405E+02  0.13269096046E+02  0.53114930549E+02  0.17770000000E+01 0. -1.
</event>
<event>
 7    1  0.2537562E-007  0.1472637E+03  0.7546771E-02  0.1100575E+00
        -11   -1    0    0    0    0  0.00000000000E+00  0.00000000000E+00  0.18250000000E+03  0.18250000000E+03  0.00000000000E+00 0.  1.
         11   -1    0    0    0    0 -0.00000000000E+00 -0.00000000000E+00 -0.18250000000E+03  0.18250000000E+03  0.00000000000E+00 0. -1.
         23    2    1    2    0    0  0.17323083412E+02  0.16681985237E+02 -0.62131188098E+02  0.12378370552E+03  0.10432518089E+03 0.  0.
        -11    1    1    2    0    0 -0.40117928084E+02  0.45199017812E+02  0.13197775450E+03  0.14515690493E+03  0.00000000000E+00 0.  1.
         11    1    1    2    0    0  0.22794844672E+02 -0.61881003049E+02 -0.69846566406E+02  0.96059389550E+02  0.00000000000E+00 0. -1.
        -15    1    3    3    0    0 -0.27815037992E+02  0.42841088870E+02 -0.14521531886E+02  0.53132549829E+02  0.17770000000E+01 0.  1.
         15    1    3    3    0    0  0.45138121404E+02 -0.26159103633E+02 -0.47609656212E+02  0.70651155690E+02  0.17770000000E+01 0. -1.
</event>
<event>
 7    1  0.2537562E-007  0.1321057E+03  0.7546771E-02  0.1117603E+00
        -11   -1    0    0    0    0  0.00000000000E+00  0.00000000000E+00  0.18250000000E+03  0.18250000000E+03  0.00000000000E+00 0. -1.
         11   -1    0    0    0    0 -0.00000000000E+00 -0.00000000000E+00 -0.18250000000E+03  0.18250000000E+03  0.00000000000E+00 0.  1.
         23    2    1    2    0    0  0.14902934224E+02  0.47773912199E+02 -0.12666572928E+02  0.95792721953E+02  0.80692994579E+02 0.  0.
        -11    1    1    2    0    0  0.91405956403E+02 -0.31063235931E+02  0.93669630414E+02  0.13451384001E+03  0.00000000000E+00 0. -1.
         11    1    1    2    0    0 -0.10630889063E+03 -0.16710676269E+02 -0.81003057487E+02  0.13469343804E+03  0.00000000000E+00 0.  1.
        -15    1    3    3    0    0  0.27911506201E+02 -0.13090769522E+02  0.44968816230E+01  0.31205770275E+02  0.17770000000E+01 0.  1.
         15    1    3    3    0    0 -0.13008571977E+02  0.60864681722E+02 -0.17163454551E+02  0.64586951678E+02  0.17770000000E+01 0. -1.
</event>
<event>
 7    1  0.2537562E-007  0.1177960E+03  0.7546771E-02  0.1136170E+00
        -11   -1    0    0    0    0  0.00000000000E+00  0.00000000000E+00  0.18250000000E+03  0.18250000000E+03  0.00000000000E+00 0. -1.
         11   -1    0    0    0    0 -0.00000000000E+00 -0.00000000000E+00 -0.18250000000E+03  0.18250000000E+03  0.00000000000E+00 0. -1.
         23    2    1    2    0    0 -0.79560535159E+02  0.42890458911E+02 -0.70948748451E+01  0.11256509112E+03  0.66716506730E+02 0.  0.
        -11    1    1    2    0    0  0.38722085020E+02 -0.43370641915E+02  0.11947099639E+03  0.13286734522E+03  0.00000000000E+00 0. -1.
         11    1    1    2    0    0  0.40838450139E+02  0.48018300463E+00 -0.11237612154E+03  0.11956756365E+03  0.00000000000E+00 0. -1.
        -15    1    3    3    0    0 -0.47670238291E+02  0.33048708181E+02 -0.36072414398E+02  0.68330414463E+02  0.17770000000E+01 0. -1.
         15    1    3    3    0    0 -0.31890296867E+02  0.98417507296E+01  0.28977539553E+02  0.44234676660E+02  0.17770000000E+01 0.  1.
</event>
<event>
 7    1  0.2537562E-007  0.1583470E+03  0.7546771E-02  0.1089492E+00
        -11   -1    0    0    0    0  0.00000000000E+00  0.00000000000E+00  0.18250000000E+03  0.18250000000E+03  0.00000000000E+00 0.  1.
         11   -1    0    0    0    0 -0.00000000000E+00 -0.00000000000E+00 -0.18250000000E+03  0.18250000000E+03  0.00000000000E+00 0. -1.
         23    2    1    2    0    0  0.54675479068E+02 -0.27194067307E+01 -0.90609743480E+02  0.14012460064E+03  0.91804002672E+02 0.  0.
        -11    1    1    2    0    0 -0.36797555653E+02  0.41545650925E+02  0.14525604823E+03  0.15549733361E+03  0.00000000000E+00 0.  1.
         11    1    1    2    0    0 -0.17877923415E+02 -0.38826244194E+02 -0.54646304752E+02  0.69378065748E+02  0.00000000000E+00 0. -1.
        -15    1    3    3    0    0  0.65800272702E+02 -0.26530186351E+01 -0.20323817297E+02  0.68941494574E+02  0.17770000000E+01 0.  1.
         15    1    3    3    0    0 -0.11124793635E+02 -0.66388095661E-01 -0.70285926182E+02  0.71183106065E+02  0.17770000000E+01 0. -1.
</event>
<event>
 7    1  0.2537562E-007  0.1601801E+03  0.7546771E-02  0.1087755E+00
        -11   -1    0    0    0    0  0.00000000000E+00  0.00000000000E+00  0.18250000000E+03  0.18250000000E+03  0.00000000000E+00 0.  1.
         11   -1    0    0    0    0 -0.00000000000E+00 -0.00000000000E+00 -0.18250000000E+03  0.18250000000E+03  0.00000000000E+00 0. -1.
         23    2    1    2    0    0  0.42260080562E+01 -0.13679941369E+02  0.15561483743E+03  0.18092900977E+03  0.91182942531E+02 0.  0.
        -11    1    1    2    0    0 -0.76954111069E+00  0.49768195398E+02 -0.43037957895E+02  0.65800693663E+02  0.00000000000E+00 0.  1.
         11    1    1    2    0    0 -0.34564669456E+01 -0.36088254029E+02 -0.11257687954E+03  0.11827029656E+03  0.00000000000E+00 0. -1.
        -15    1    3    3    0    0  0.42529592277E+02  0.10324580358E+02  0.10046787787E+03  0.10960070890E+03  0.17770000000E+01 0. -1.
         15    1    3    3    0    0 -0.38303584221E+02 -0.24004521727E+02  0.55146959568E+02  0.71328300878E+02  0.17770000000E+01 0.  1.
</event>
<event>
 7    1  0.2537562E-007  0.1797825E+03  0.7546771E-02  0.1070639E+00
        -11   -1    0    0    0    0  0.00000000000E+00  0.00000000000E+00  0.18250000000E+03  0.18250000000E+03  0.00000000000E+00 0.  1.
         11   -1    0    0    0    0 -0.00000000000E+00 -0.00000000000E+00 -0.18250000000E+03  0.18250000000E+03  0.00000000000E+00 0. -1.
         23    2    1    2    0    0 -0.27109884478E+02  0.41296603079E+02  0.13808871462E+03  0.17220725603E+03  0.90257911905E+02 0.  0.
        -11    1    1    2    0    0 -0.57501969641E-01 -0.17884484279E+02  0.22218832514E+02  0.28522527986E+02  0.00000000000E+00 0.  1.
         11    1    1    2    0    0  0.27167386448E+02 -0.23412118800E+02 -0.16030754713E+03  0.16427021599E+03  0.00000000000E+00 0. -1.
        -15    1    3    3    0    0  0.17451065572E+01  0.55091891584E+02  0.12674922350E+03  0.13822693407E+03  0.17770000000E+01 0.  1.
         15    1    3    3    0    0 -0.28854991036E+02 -0.13795288505E+02  0.11339491117E+02  0.33980321958E+02  0.17770000000E+01 0. -1.
</event>
<event>
 7    1  0.2537562E-007  0.1402577E+03  0.7546771E-02  0.1108151E+00
        -11   -1    0    0    0    0  0.00000000000E+00  0.00000000000E+00  0.18250000000E+03  0.18250000000E+03  0.00000000000E+00 0.  1.
         11   -1    0    0    0    0 -0.00000000000E+00 -0.00000000000E+00 -0.18250000000E+03  0.18250000000E+03  0.00000000000E+00 0.  1.
         23    2    1    2    0    0  0.66101922096E+02  0.16872771483E+02 -0.53328215128E+02  0.11999823051E+03  0.83075401132E+02 0.  0.
        -11    1    1    2    0    0 -0.14651954198E+03 -0.33233281580E+02  0.62044768535E+01  0.15036928782E+03  0.00000000000E+00 0.  1.
         11    1    1    2    0    0  0.80417619885E+02  0.16360510097E+02  0.47123738275E+02  0.94632481673E+02  0.00000000000E+00 0.  1.
        -15    1    3    3    0    0  0.44412990806E+02 -0.19210134710E+02  0.42948764869E+01  0.48612207530E+02  0.17770000000E+01 0.  1.
         15    1    3    3    0    0  0.21688931290E+02  0.36082906193E+02 -0.57623091615E+02  0.71386022975E+02  0.17770000000E+01 0. -1.
</event>
<event>
 7    1  0.2537562E-007  0.1639962E+03  0.7546771E-02  0.1084219E+00
        -11   -1    0    0    0    0  0.00000000000E+00  0.00000000000E+00  0.18250000000E+03  0.18250000000E+03  0.00000000000E+00 0.  1.
         11   -1    0    0    0    0 -0.00000000000E+00 -0.00000000000E+00 -0.18250000000E+03  0.18250000000E+03  0.00000000000E+00 0. -1.
         23    2    1    2    0    0 -0.28172581626E+02 -0.35684746942E+02  0.12078638343E+03  0.15955118977E+03  0.93809041226E+02 0.  0.
        -11    1    1    2    0    0  0.55858273811E+02  0.12147747080E+02  0.19603776685E+02  0.60431966479E+02  0.00000000000E+00 0.  1.
         11    1    1    2    0    0 -0.27685692185E+02  0.23536999862E+02 -0.14039016011E+03  0.14501684375E+03  0.00000000000E+00 0. -1.
        -15    1    3    3    0    0 -0.47237246139E+02  0.14577640386E+02  0.68888833694E+02  0.84809752734E+02  0.17770000000E+01 0.  1.
         15    1    3    3    0    0  0.19064664513E+02 -0.50262387328E+02  0.51897549735E+02  0.74741437037E+02  0.17770000000E+01 0. -1.
</event>
<event>
 7    1  0.2537562E-007  0.1392045E+03  0.7546771E-02  0.1109331E+00
        -11   -1    0    0    0    0  0.00000000000E+00  0.00000000000E+00  0.18250000000E+03  0.18250000000E+03  0.00000000000E+00 0. -1.
         11   -1    0    0    0    0 -0.00000000000E+00 -0.00000000000E+00 -0.18250000000E+03  0.18250000000E+03  0.00000000000E+00 0. -1.
         23    2    1    2    0    0  0.15960368365E+02 -0.85539499516E+00  0.13125090153E+03  0.16042307952E+03  0.90847675976E+02 0.  0.
        -11    1    1    2    0    0 -0.79965502317E+02  0.30024481378E+02 -0.59482042022E+02  0.10408681168E+03  0.00000000000E+00 0. -1.
         11    1    1    2    0    0  0.64005133952E+02 -0.29169086383E+02 -0.71768859507E+02  0.10049010880E+03  0.00000000000E+00 0. -1.
        -15    1    3    3    0    0 -0.32349293859E+02  0.75987299798E+01  0.19990814558E+02  0.38820199718E+02  0.17770000000E+01 0. -1.
         15    1    3    3    0    0  0.48309662224E+02 -0.84541249750E+01  0.11126008697E+03  0.12160287980E+03  0.17770000000E+01 0.  1.
</event>
<event>
 7    1  0.2537562E-007  0.1873205E+03  0.7546771E-02  0.1064681E+00
        -11   -1    0    0    0    0  0.00000000000E+00  0.00000000000E+00  0.18250000000E+03  0.18250000000E+03  0.00000000000E+00 0.  1.
         11   -1    0    0    0    0 -0.00000000000E+00 -0.00000000000E+00 -0.18250000000E+03  0.18250000000E+03  0.00000000000E+00 0.  1.
         23    2    1    2    0    0  0.23379355744E+02  0.19862196687E+02  0.16012856373E+03  0.18732049168E+03  0.92231819615E+02 0.  0.
        -11    1    1    2    0    0  0.18238676588E+02 -0.24982370462E+02 -0.40811823757E+02  0.51209111650E+02  0.00000000000E+00 0.  1.
         11    1    1    2    0    0 -0.41618032332E+02  0.51201737741E+01 -0.11931673998E+03  0.12647039667E+03  0.00000000000E+00 0.  1.
        -15    1    3    3    0    0  0.50953201420E+02  0.15446750531E+02  0.14710978739E+03  0.15645855077E+03  0.17770000000E+01 0.  1.
         15    1    3    3    0    0 -0.27573845676E+02  0.44154461567E+01  0.13018776347E+02  0.30861940910E+02  0.17770000000E+01 0. -1.
</event>
<event>
 7    1  0.2537562E-007  0.2134662E+03  0.7546771E-02  0.1046171E+00
        -11   -1    0    0    0    0  0.00000000000E+00  0.00000000000E+00  0.18250000000E+03  0.18250000000E+03  0.00000000000E+00 0. -1.
         11   -1    0    0    0    0 -0.00000000000E+00 -0.00000000000E+00 -0.18250000000E+03  0.18250000000E+03  0.00000000000E+00 0. -1.
         23    2    1    2    0    0 -0.86541123905E+01 -0.53223247809E+01  0.77283305157E+02  0.11920606466E+03  0.90189554788E+02 0.  0.
        -11    1    1    2    0    0  0.51371011720E+02 -0.58155740349E+02  0.53515399117E+02  0.94260113109E+02  0.00000000000E+00 0. -1.
         11    1    1    2    0    0 -0.42716899330E+02  0.63478065130E+02 -0.13079870427E+03  0.15153382223E+03  0.00000000000E+00 0. -1.
        -15    1    3    3    0    0  0.36953292286E+02  0.93407045286E+01  0.53440800234E+02  0.65664841662E+02  0.17770000000E+01 0.  1.
         15    1    3    3    0    0 -0.45607404676E+02 -0.14663029309E+02  0.23842504923E+02  0.53541222996E+02  0.17770000000E+01 0. -1.
</event>
<event>
 7    1  0.2537562E-007  0.1712987E+03  0.7546771E-02  0.1077738E+00
        -11   -1    0    0    0    0  0.00000000000E+00  0.00000000000E+00  0.18250000000E+03  0.18250000000E+03  0.00000000000E+00 0. -1.
         11   -1    0    0    0    0 -0.00000000000E+00 -0.00000000000E+00 -0.18250000000E+03  0.18250000000E+03  0.00000000000E+00 0. -1.
         23    2    1    2    0    0 -0.24945779914E+02  0.46900743186E+02  0.13665756530E+03  0.17206222432E+03  0.90045251064E+02 0.  0.
        -11    1    1    2    0    0  0.67348126858E+02 -0.36157902005E+02 -0.12686269094E+03  0.14811247895E+03  0.00000000000E+00 0. -1.
         11    1    1    2    0    0 -0.42402346943E+02 -0.10742841181E+02 -0.97948743626E+01  0.44825296728E+02  0.00000000000E+00 0. -1.
        -15    1    3    3    0    0 -0.23389031919E+02  0.13510514562E+02 -0.41011620768E+01  0.27378058317E+02  0.17770000000E+01 0.  1.
         15    1    3    3    0    0 -0.15567479954E+01  0.33390228624E+02  0.14075872738E+03  0.14468416601E+03  0.17770000000E+01 0. -1.
</event>
<event>
 7    1  0.2537562E-007  0.1325619E+03  0.7546771E-02  0.1117055E+00
        -11   -1    0    0    0    0  0.00000000000E+00  0.00000000000E+00  0.18250000000E+03  0.18250000000E+03  0.00000000000E+00 0.  1.
         11   -1    0    0    0    0 -0.00000000000E+00 -0.00000000000E+00 -0.18250000000E+03  0.18250000000E+03  0.00000000000E+00 0.  1.
         23    2    1    2    0    0 -0.14887782907E+02 -0.34127794173E+02  0.97352289617E+02  0.13862758623E+03  0.91399053356E+02 0.  0.
        -11    1    1    2    0    0 -0.30397881815E+02  0.10509127034E+03 -0.18353834206E+02  0.11092821801E+03  0.00000000000E+00 0.  1.
         11    1    1    2    0    0  0.45285664722E+02 -0.70963476166E+02 -0.78998455411E+02  0.11544419577E+03  0.00000000000E+00 0.  1.
        -15    1    3    3    0    0 -0.11683631828E+02 -0.65195532125E+02  0.55854524418E+02  0.86659392386E+02  0.17770000000E+01 0.  1.
         15    1    3    3    0    0 -0.32041510793E+01  0.31067737952E+02  0.41497765199E+02  0.51968193841E+02  0.17770000000E+01 0. -1.
</event>
<event>
 7    1  0.2537562E-007  0.1603074E+03  0.7546771E-02  0.1087635E+00
        -11   -1    0    0    0    0  0.00000000000E+00  0.00000000000E+00  0.18250000000E+03  0.18250000000E+03  0.00000000000E+00 0.  1.
         11   -1    0    0    0    0 -0.00000000000E+00 -0.00000000000E+00 -0.18250000000E+03  0.18250000000E+03  0.00000000000E+00 0. -1.
         23    2    1    2    0    0 -0.38926698589E+00  0.27188383163E+02  0.15531064242E+03  0.18310208143E+03  0.93089295123E+02 0.  0.
        -11    1    1    2    0    0 -0.39944760701E+02 -0.24519274325E+02 -0.47378016738E+02  0.66644243494E+02  0.00000000000E+00 0. -1.
         11    1    1    2    0    0  0.40334027687E+02 -0.26691088388E+01 -0.10793262568E+03  0.11525367508E+03  0.00000000000E+00 0.  1.
        -15    1    3    3    0    0  0.16231195357E+02  0.58371956924E+02  0.11022503531E+03  0.12579130811E+03  0.17770000000E+01 0.  1.
         15    1    3    3    0    0 -0.16620462342E+02 -0.31183573760E+02  0.45085607116E+02  0.57310773324E+02  0.17770000000E+01 0. -1.
</event>
<event>
 7    1  0.2537562E-007  0.1620935E+03  0.7546771E-02  0.1085969E+00
        -11   -1    0    0    0    0  0.00000000000E+00  0.00000000000E+00  0.18250000000E+03  0.18250000000E+03  0.00000000000E+00 0. -1.
         11   -1    0    0    0    0 -0.00000000000E+00 -0.00000000000E+00 -0.18250000000E+03  0.18250000000E+03  0.00000000000E+00 0. -1.
         23    2    1    2    0    0 -0.36463416202E+02  0.99170015881E+01 -0.81659446277E+02  0.14017040198E+03  0.10747813165E+03 0.  0.
        -11    1    1    2    0    0  0.97449275334E+02  0.70059201121E+01  0.11693016805E+03  0.15237489419E+03  0.00000000000E+00 0. -1.
         11    1    1    2    0    0 -0.60985859133E+02 -0.16922921700E+02 -0.35270721772E+02  0.72454703832E+02  0.00000000000E+00 0. -1.
        -15    1    3    3    0    0  0.27277651281E+02 -0.19392799762E+02 -0.13851890798E+01  0.33544409666E+02  0.17770000000E+01 0.  1.
         15    1    3    3    0    0 -0.63741067483E+02  0.29309801350E+02 -0.80274257197E+02  0.10662599231E+03  0.17770000000E+01 0. -1.
</event>
<event>
 7    1  0.2537562E-007  0.1676085E+03  0.7546771E-02  0.1080968E+00
        -11   -1    0    0    0    0  0.00000000000E+00  0.00000000000E+00  0.18250000000E+03  0.18250000000E+03  0.00000000000E+00 0.  1.
         11   -1    0    0    0    0 -0.00000000000E+00 -0.00000000000E+00 -0.18250000000E+03  0.18250000000E+03  0.00000000000E+00 0. -1.
         23    2    1    2    0    0  0.29614444965E+02  0.23280187724E+02 -0.10778840407E+03  0.14647931570E+03  0.91754386194E+02 0.  0.
        -11    1    1    2    0    0 -0.50533293588E+02 -0.24269602564E+02  0.15610237890E+03  0.16586313656E+03  0.00000000000E+00 0.  1.
         11    1    1    2    0    0  0.20918848623E+02  0.98941484002E+00 -0.48313974839E+02  0.52657547742E+02  0.00000000000E+00 0. -1.
        -15    1    3    3    0    0  0.44166066259E+02 -0.20165001309E+02 -0.32923169657E+02  0.58688683030E+02  0.17770000000E+01 0.  1.
         15    1    3    3    0    0 -0.14551621295E+02  0.43445189032E+02 -0.74865234409E+02  0.87790632669E+02  0.17770000000E+01 0. -1.
</event>
<event>
 7    1  0.2537562E-007  0.1648873E+03  0.7546771E-02  0.1083409E+00
        -11   -1    0    0    0    0  0.00000000000E+00  0.00000000000E+00  0.18250000000E+03  0.18250000000E+03  0.00000000000E+00 0. -1.
         11   -1    0    0    0    0 -0.00000000000E+00 -0.00000000000E+00 -0.18250000000E+03  0.18250000000E+03  0.00000000000E+00 0. -1.
         23    2    1    2    0    0  0.75643313448E+02  0.39009514654E+01 -0.10311235488E+03  0.15712117095E+03  0.91201843950E+02 0.  0.
        -11    1    1    2    0    0 -0.57174392800E+02  0.41478202059E+02  0.13292536245E+03  0.15052742083E+03  0.00000000000E+00 0. -1.
         11    1    1    2    0    0 -0.18468920648E+02 -0.45379153525E+02 -0.29813007574E+02  0.57351408223E+02  0.00000000000E+00 0. -1.
        -15    1    3    3    0    0  0.76250018308E+02  0.17475442362E+02 -0.31730821156E+02  0.84436124484E+02  0.17770000000E+01 0.  1.
         15    1    3    3    0    0 -0.60670486014E+00 -0.13574490897E+02 -0.71381533723E+02  0.72685046464E+02  0.17770000000E+01 0. -1.
</event>
<event>
 7    1  0.2537562E-007  0.1586701E+03  0.7546771E-02  0.1089184E+00
        -11   -1    0    0    0    0  0.00000000000E+00  0.00000000000E+00  0.18250000000E+03  0.18250000000E+03  0.00000000000E+00 0. -1.
         11   -1    0    0    0    0 -0.00000000000E+00 -0.00000000000E+00 -0.18250000000E+03  0.18250000000E+03  0.00000000000E+00 0.  1.
         23    2    1    2    0    0 -0.91821729176E+02 -0.71426626404E+02  0.76710606827E+00  0.14298906067E+03  0.83140183497E+02 0.  0.
        -11    1    1    2    0    0 -0.58609500451E+02  0.24830733189E+02  0.86993074039E+01  0.64244196649E+02  0.00000000000E+00 0. -1.
         11    1    1    2    0    0  0.15043122963E+03  0.46595893215E+02 -0.94664134722E+01  0.15776674268E+03  0.00000000000E+00 0.  1.
        -15    1    3    3    0    0 -0.51935690330E+02 -0.50632812308E+02  0.40372379699E+02  0.83030623170E+02  0.17770000000E+01 0.  1.
         15    1    3    3    0    0 -0.39886038845E+02 -0.20793814095E+02 -0.39605273631E+02  0.59958437503E+02  0.17770000000E+01 0. -1.
</event>
<event>
 7    1  0.2537562E-007  0.1612206E+03  0.7546771E-02  0.1086780E+00
        -11   -1    0    0    0    0  0.00000000000E+00  0.00000000000E+00  0.18250000000E+03  0.18250000000E+03  0.00000000000E+00 0. -1.
         11   -1    0    0    0    0 -0.00000000000E+00 -0.00000000000E+00 -0.18250000000E+03  0.18250000000E+03  0.00000000000E+00 0.  1.
         23    2    1    2    0    0 -0.67917742638E+02  0.76551846568E+02  0.76112646816E+02  0.15708809013E+03  0.91708931291E+02 0.  0.
        -11    1    1    2    0    0 -0.28227590592E+02 -0.50747086739E+02  0.27478165119E+02  0.64242612349E+02  0.00000000000E+00 0. -1.
         11    1    1    2    0    0  0.96145333230E+02 -0.25804759829E+02 -0.10359081194E+03  0.14366929752E+03  0.00000000000E+00 0.  1.
        -15    1    3    3    0    0  0.76562527738E+01 -0.11320663973E+02 -0.60055556475E+01  0.15033298606E+02  0.17770000000E+01 0.  1.
         15    1    3    3    0    0 -0.75573995411E+02  0.87872510541E+02  0.82118202463E+02  0.14205479153E+03  0.17770000000E+01 0. -1.
</event>
<event>
 7    1  0.2537562E-007  0.1247484E+03  0.7546771E-02  0.1126805E+00
        -11   -1    0    0    0    0  0.00000000000E+00  0.00000000000E+00  0.18250000000E+03  0.18250000000E+03  0.00000000000E+00 0.  1.
         11   -1    0    0    0    0 -0.00000000000E+00 -0.00000000000E+00 -0.18250000000E+03  0.18250000000E+03  0.00000000000E+00 0. -1.
         23    2    1    2    0    0  0.20870710761E+02 -0.13215490679E+02 -0.55661801958E+02  0.10817889545E+03  0.89410298416E+02 0.  0.
        -11    1    1    2    0    0  0.86554627445E+02  0.82397022390E+02  0.57404302427E+01  0.11964081816E+03  0.00000000000E+00 0.  1.
         11    1    1    2    0    0 -0.10742533821E+03 -0.69181531711E+02  0.49921371716E+02  0.13718028638E+03  0.00000000000E+00 0. -1.
        -15    1    3    3    0    0 -0.19141554288E+02 -0.57408205834E+01 -0.63582684257E+02  0.66672869954E+02  0.17770000000E+01 0. -1.
         15    1    3    3    0    0  0.40012265049E+02 -0.74746700957E+01  0.79208822991E+01  0.41506025500E+02  0.17770000000E+01 0.  1.
</event>
<event>
 7    1  0.2537562E-007  0.1657735E+03  0.7546771E-02  0.1082608E+00
        -11   -1    0    0    0    0  0.00000000000E+00  0.00000000000E+00  0.18250000000E+03  0.18250000000E+03  0.00000000000E+00 0.  1.
         11   -1    0    0    0    0 -0.00000000000E+00 -0.00000000000E+00 -0.18250000000E+03  0.18250000000E+03  0.00000000000E+00 0. -1.
         23    2    1    2    0    0  0.28097656504E+02  0.70411772566E+01  0.10766745957E+03  0.14530886539E+03  0.93184376544E+02 0.  0.
        -11    1    1    2    0    0 -0.15173319242E+02  0.10875946445E+02  0.53682398170E+02  0.56835866327E+02  0.00000000000E+00 0.  1.
         11    1    1    2    0    0 -0.12924337262E+02 -0.17917123702E+02 -0.16134985774E+03  0.16285526828E+03  0.00000000000E+00 0. -1.
        -15    1    3    3    0    0  0.17964640951E+02  0.78161332840E+01 -0.13400364278E+02  0.23802263669E+02  0.17770000000E+01 0. -1.
         15    1    3    3    0    0  0.10133015553E+02 -0.77495602741E+00  0.12106782385E+03  0.12150660172E+03  0.17770000000E+01 0.  1.
</event>
<event>
 7    1  0.2537562E-007  0.1752501E+03  0.7546771E-02  0.1074377E+00
        -11   -1    0    0    0    0  0.00000000000E+00  0.00000000000E+00  0.18250000000E+03  0.18250000000E+03  0.00000000000E+00 0.  1.
         11   -1    0    0    0    0 -0.00000000000E+00 -0.00000000000E+00 -0.18250000000E+03  0.18250000000E+03  0.00000000000E+00 0.  1.
         23    2    1    2    0    0 -0.56759635249E+01 -0.12245589750E+02  0.13555091605E+03  0.16369040579E+03  0.90765230547E+02 0.  0.
        -11    1    1    2    0    0 -0.28364463815E+02  0.46466628358E+01  0.24336821936E+02  0.37661853180E+02  0.00000000000E+00 0.  1.
         11    1    1    2    0    0  0.34040427340E+02  0.75989269142E+01 -0.15988773799E+03  0.16364774103E+03  0.00000000000E+00 0.  1.
        -15    1    3    3    0    0  0.28841683991E+02  0.15323787258E+02  0.10493088111E+03  0.10991045779E+03  0.17770000000E+01 0. -1.
         15    1    3    3    0    0 -0.34517647516E+02 -0.27569377008E+02  0.30620034939E+02  0.53779948005E+02  0.17770000000E+01 0.  1.
</event>
<event>
 7    1  0.2537562E-007  0.1418148E+03  0.7546771E-02  0.1106425E+00
        -11   -1    0    0    0    0  0.00000000000E+00  0.00000000000E+00  0.18250000000E+03  0.18250000000E+03  0.00000000000E+00 0. -1.
         11   -1    0    0    0    0 -0.00000000000E+00 -0.00000000000E+00 -0.18250000000E+03  0.18250000000E+03  0.00000000000E+00 0. -1.
         23    2    1    2    0    0 -0.91416076077E+01  0.38776299253E+02  0.83551831163E+02  0.12904533295E+03  0.89914509908E+02 0.  0.
        -11    1    1    2    0    0  0.63251365593E+02 -0.56717851169E+02  0.44413660599E+02  0.95865651505E+02  0.00000000000E+00 0. -1.
         11    1    1    2    0    0 -0.54109757986E+02  0.17941551916E+02 -0.12796549176E+03  0.14008901555E+03  0.00000000000E+00 0. -1.
        -15    1    3    3    0    0 -0.39635387950E+02  0.21966566538E+02  0.82925591408E+01  0.46102259050E+02  0.17770000000E+01 0.  1.
         15    1    3    3    0    0  0.30493780343E+02  0.16809732715E+02  0.75259272022E+02  0.82943073899E+02  0.17770000000E+01 0. -1.
</event>
<event>
 7    1  0.2537562E-007  0.1451569E+03  0.7546771E-02  0.1102804E+00
        -11   -1    0    0    0    0  0.00000000000E+00  0.00000000000E+00  0.18250000000E+03  0.18250000000E+03  0.00000000000E+00 0. -1.
         11   -1    0    0    0    0 -0.00000000000E+00 -0.00000000000E+00 -0.18250000000E+03  0.18250000000E+03  0.00000000000E+00 0. -1.
         23    2    1    2    0    0  0.20469338826E+02  0.67937406333E+02  0.75333721085E+02  0.13816473377E+03  0.91541461182E+02 0.  0.
        -11    1    1    2    0    0  0.68556792743E+01 -0.13397061045E+03 -0.18270400133E+02  0.13538438729E+03  0.00000000000E+00 0. -1.
         11    1    1    2    0    0 -0.27325018100E+02  0.66033204113E+02 -0.57063320952E+02  0.91450878933E+02  0.00000000000E+00 0. -1.
        -15    1    3    3    0    0  0.19340195525E+02  0.90730192113E+02  0.63123425433E+02  0.11222181379E+03  0.17770000000E+01 0. -1.
         15    1    3    3    0    0  0.11291433012E+01 -0.22792785780E+02  0.12210295652E+02  0.25942919981E+02  0.17770000000E+01 0.  1.
</event>
<event>
 7    1  0.2537562E-007  0.1686087E+03  0.7546771E-02  0.1080083E+00
        -11   -1    0    0    0    0  0.00000000000E+00  0.00000000000E+00  0.18250000000E+03  0.18250000000E+03  0.00000000000E+00 0.  1.
         11   -1    0    0    0    0 -0.00000000000E+00 -0.00000000000E+00 -0.18250000000E+03  0.18250000000E+03  0.00000000000E+00 0. -1.
         23    2    1    2    0    0  0.90563420743E+01 -0.25179749832E+01  0.13900255352E+03  0.16520387450E+03  0.88782051869E+02 0.  0.
        -11    1    1    2    0    0 -0.35516195264E+02 -0.33705582360E+02  0.47626234457E+01  0.49195009811E+02  0.00000000000E+00 0.  1.
         11    1    1    2    0    0  0.26459853190E+02  0.36223557343E+02 -0.14376517697E+03  0.15060111569E+03  0.00000000000E+00 0. -1.
        -15    1    3    3    0    0 -0.33122726920E+01  0.34145387808E+02  0.11409110957E+03  0.11915039937E+03  0.17770000000E+01 0.  1.
         15    1    3    3    0    0  0.12368614766E+02 -0.36663362791E+02  0.24911443954E+02  0.46053475127E+02  0.17770000000E+01 0. -1.
</event>
<event>
 7    1  0.2537562E-007  0.1716671E+03  0.7546771E-02  0.1077420E+00
        -11   -1    0    0    0    0  0.00000000000E+00  0.00000000000E+00  0.18250000000E+03  0.18250000000E+03  0.00000000000E+00 0.  1.
         11   -1    0    0    0    0 -0.00000000000E+00 -0.00000000000E+00 -0.18250000000E+03  0.18250000000E+03  0.00000000000E+00 0. -1.
         23    2    1    2    0    0  0.54222596819E+02 -0.14472530795E+01  0.12086652661E+03  0.16040049361E+03  0.90429069143E+02 0.  0.
        -11    1    1    2    0    0  0.36090041446E+01 -0.37452378193E+02  0.23449387980E+02  0.44334854684E+02  0.00000000000E+00 0.  1.
         11    1    1    2    0    0 -0.57831600963E+02  0.38899631272E+02 -0.14431591459E+03  0.16026465171E+03  0.00000000000E+00 0. -1.
        -15    1    3    3    0    0 -0.93138526078E+01  0.27179400423E+02  0.12129980122E+02  0.31237186245E+02  0.17770000000E+01 0. -1.
         15    1    3    3    0    0  0.63536449427E+02 -0.28626653502E+02  0.10873654649E+03  0.12916330736E+03  0.17770000000E+01 0.  1.
</event>
<event>
 7    1  0.2537562E-007  0.1682635E+03  0.7546771E-02  0.1080388E+00
        -11   -1    0    0    0    0  0.00000000000E+00  0.00000000000E+00  0.18250000000E+03  0.18250000000E+03  0.00000000000E+00 0.  1.
         11   -1    0    0    0    0 -0.00000000000E+00 -0.00000000000E+00 -0.18250000000E+03  0.18250000000E+03  0.00000000000E+00 0. -1.
         23    2    1    2    0    0 -0.10597732658E+02  0.10237777197E+02  0.15836924257E+03  0.18326365040E+03  0.91036391339E+02 0.  0.
        -11    1    1    2    0    0  0.18037960683E+01  0.35778742622E+02 -0.36367675842E+02  0.51048799692E+02  0.00000000000E+00 0.  1.
         11    1    1    2    0    0  0.87939365895E+01 -0.46016519819E+02 -0.12200156672E+03  0.13068754991E+03  0.00000000000E+00 0. -1.
        -15    1    3    3    0    0 -0.63406536165E+01 -0.12068008146E+01  0.16767505831E+03  0.16780865045E+03  0.17770000000E+01 0.  1.
         15    1    3    3    0    0 -0.42570790413E+01  0.11444578011E+02 -0.93058157462E+01  0.15454999952E+02  0.17770000000E+01 0. -1.
</event>
<event>
 7    1  0.2537562E-007  0.1598281E+03  0.7546771E-02  0.1088086E+00
        -11   -1    0    0    0    0  0.00000000000E+00  0.00000000000E+00  0.18250000000E+03  0.18250000000E+03  0.00000000000E+00 0.  1.
         11   -1    0    0    0    0 -0.00000000000E+00 -0.00000000000E+00 -0.18250000000E+03  0.18250000000E+03  0.00000000000E+00 0. -1.
         23    2    1    2    0    0  0.24305365574E+02 -0.16191749032E+02  0.15301379690E+03  0.18267486223E+03  0.95414672453E+02 0.  0.
        -11    1    1    2    0    0 -0.21650674801E+01  0.50216286103E+02 -0.47035181346E+02  0.68838006881E+02  0.00000000000E+00 0.  1.
         11    1    1    2    0    0 -0.22140298094E+02 -0.34024537070E+02 -0.10597861555E+03  0.11348713088E+03  0.00000000000E+00 0. -1.
        -15    1    3    3    0    0  0.96446206036E+01 -0.42174507439E+02  0.14557292148E+03  0.15187607113E+03  0.17770000000E+01 0.  1.
         15    1    3    3    0    0  0.14660744971E+02  0.25982758407E+02  0.74408754152E+01  0.30798791104E+02  0.17770000000E+01 0. -1.
</event>
<event>
 7    1  0.2537562E-007  0.1300213E+03  0.7546771E-02  0.1120142E+00
        -11   -1    0    0    0    0  0.00000000000E+00  0.00000000000E+00  0.18250000000E+03  0.18250000000E+03  0.00000000000E+00 0. -1.
         11   -1    0    0    0    0 -0.00000000000E+00 -0.00000000000E+00 -0.18250000000E+03  0.18250000000E+03  0.00000000000E+00 0.  1.
         23    2    1    2    0    0  0.37989571739E+02  0.73044241550E+02 -0.53013027846E+01  0.12269270989E+03  0.90811499624E+02 0.  0.
        -11    1    1    2    0    0 -0.80686023489E+02 -0.20197333203E+02  0.97258943453E+02  0.12797448471E+03  0.00000000000E+00 0. -1.
         11    1    1    2    0    0  0.42696451750E+02 -0.52846908348E+02 -0.91957640668E+02  0.11433280540E+03  0.00000000000E+00 0.  1.
        -15    1    3    3    0    0  0.47272489217E+02  0.88924510590E+02  0.62183540349E+01  0.10091621513E+03  0.17770000000E+01 0.  1.
         15    1    3    3    0    0 -0.92829174775E+01 -0.15880269040E+02 -0.11519656820E+02  0.21776494757E+02  0.17770000000E+01 0. -1.
</event>
<event>
 7    1  0.2537562E-007  0.1327628E+03  0.7546771E-02  0.1116814E+00
        -11   -1    0    0    0    0  0.00000000000E+00  0.00000000000E+00  0.18250000000E+03  0.18250000000E+03  0.00000000000E+00 0.  1.
         11   -1    0    0    0    0 -0.00000000000E+00 -0.00000000000E+00 -0.18250000000E+03  0.18250000000E+03  0.00000000000E+00 0.  1.
         23    2    1    2    0    0  0.70811463071E+02 -0.37543801360E+02  0.60161916560E+02  0.13118486679E+03  0.84653486329E+02 0.  0.
        -11    1    1    2    0    0 -0.91782297189E+02  0.80272978698E+02  0.35474344331E+02  0.12698885893E+03  0.00000000000E+00 0.  1.
         11    1    1    2    0    0  0.20970834118E+02 -0.42729177338E+02 -0.95636260891E+02  0.10682627428E+03  0.00000000000E+00 0.  1.
        -15    1    3    3    0    0  0.18281496815E+02  0.26145883373E+02  0.62245785512E+01  0.32553393837E+02  0.17770000000E+01 0. -1.
         15    1    3    3    0    0  0.52529966256E+02 -0.63689684734E+02  0.53937338008E+02  0.98631472953E+02  0.17770000000E+01 0.  1.
</event>
<event>
 7    1  0.2537562E-007  0.1462857E+03  0.7546771E-02  0.1101605E+00
        -11   -1    0    0    0    0  0.00000000000E+00  0.00000000000E+00  0.18250000000E+03  0.18250000000E+03  0.00000000000E+00 0.  1.
         11   -1    0    0    0    0 -0.00000000000E+00 -0.00000000000E+00 -0.18250000000E+03  0.18250000000E+03  0.00000000000E+00 0.  1.
         23    2    1    2    0    0 -0.50025478808E+02  0.58152080553E+02 -0.68424893863E+02  0.12871184654E+03  0.77463283792E+02 0.  0.
        -11    1    1    2    0    0  0.33309304113E+02 -0.35892977943E+02  0.14593480539E+03  0.15393109833E+03  0.00000000000E+00 0.  1.
         11    1    1    2    0    0  0.16716174695E+02 -0.22259102610E+02 -0.77509911532E+02  0.82357055139E+02  0.00000000000E+00 0.  1.
        -15    1    3    3    0    0 -0.27605024347E+02  0.21158903263E+02 -0.77061046069E+02  0.84565354057E+02  0.17770000000E+01 0.  1.
         15    1    3    3    0    0 -0.22420454461E+02  0.36993177290E+02  0.86361522063E+01  0.44146492479E+02  0.17770000000E+01 0. -1.
</event>
<event>
 7    1  0.2537562E-007  0.1429657E+03  0.7546771E-02  0.1105166E+00
        -11   -1    0    0    0    0  0.00000000000E+00  0.00000000000E+00  0.18250000000E+03  0.18250000000E+03  0.00000000000E+00 0. -1.
         11   -1    0    0    0    0 -0.00000000000E+00 -0.00000000000E+00 -0.18250000000E+03  0.18250000000E+03  0.00000000000E+00 0.  1.
         23    2    1    2    0    0  0.14266934907E+03 -0.67766467474E+01  0.39081764473E+02  0.17273927069E+03  0.88943831825E+02 0.  0.
        -11    1    1    2    0    0 -0.84393900005E+02 -0.11987184882E+02  0.38416556640E+02  0.93497886519E+02  0.00000000000E+00 0. -1.
         11    1    1    2    0    0 -0.58275449062E+02  0.18763831629E+02 -0.77498321113E+02  0.98762842791E+02  0.00000000000E+00 0.  1.
        -15    1    3    3    0    0  0.15301069266E+03 -0.16325666550E+02  0.37993297092E+02  0.15851008741E+03  0.17770000000E+01 0.  1.
         15    1    3    3    0    0 -0.10341343597E+02  0.95490198022E+01  0.10884673815E+01  0.14229183280E+02  0.17770000000E+01 0. -1.
</event>
<event>
 7    1  0.2537562E-007  0.1620275E+03  0.7546771E-02  0.1086030E+00
        -11   -1    0    0    0    0  0.00000000000E+00  0.00000000000E+00  0.18250000000E+03  0.18250000000E+03  0.00000000000E+00 0.  1.
         11   -1    0    0    0    0 -0.00000000000E+00 -0.00000000000E+00 -0.18250000000E+03  0.18250000000E+03  0.00000000000E+00 0. -1.
         23    2    1    2    0    0  0.42096974841E+01 -0.41434436356E+02  0.15367837284E+03  0.18273905643E+03  0.89677123038E+02 0.  0.
        -11    1    1    2    0    0  0.91167235689E+01  0.67596558881E+02 -0.99428078676E+02  0.12057508968E+03  0.00000000000E+00 0. -1.
         11    1    1    2    0    0 -0.13326421053E+02 -0.26162122526E+02 -0.54250294168E+02  0.61685853893E+02  0.00000000000E+00 0.  1.
        -15    1    3    3    0    0 -0.34078700416E+02  0.29770859880E+01  0.28744121837E+02  0.44716922213E+02  0.17770000000E+01 0. -1.
         15    1    3    3    0    0  0.38288397900E+02 -0.44411522344E+02  0.12493425101E+03  0.13802213422E+03  0.17770000000E+01 0.  1.
</event>
<event>
 7    1  0.2537562E-007  0.1591212E+03  0.7546771E-02  0.1088755E+00
        -11   -1    0    0    0    0  0.00000000000E+00  0.00000000000E+00  0.18250000000E+03  0.18250000000E+03  0.00000000000E+00 0. -1.
         11   -1    0    0    0    0 -0.00000000000E+00 -0.00000000000E+00 -0.18250000000E+03  0.18250000000E+03  0.00000000000E+00 0.  1.
         23    2    1    2    0    0  0.54446320645E+02 -0.27063365169E+02  0.11070853475E+03  0.15477916696E+03  0.89461630271E+02 0.  0.
        -11    1    1    2    0    0 -0.44322229723E+02  0.38275599843E+02  0.31986798908E+02  0.66728081760E+02  0.00000000000E+00 0. -1.
         11    1    1    2    0    0 -0.10124090922E+02 -0.11212234674E+02 -0.14269533366E+03  0.14349275128E+03  0.00000000000E+00 0.  1.
        -15    1    3    3    0    0  0.42690563843E+02  0.18947751214E+02  0.17048312100E+02  0.49752429003E+02  0.17770000000E+01 0.  1.
         15    1    3    3    0    0  0.11755756802E+02 -0.46011116383E+02  0.93660222651E+02  0.10502673795E+03  0.17770000000E+01 0. -1.
</event>
<event>
 7    1  0.3799314E-007  0.1699523E+03  0.7546771E-02  0.1078906E+00
        -11   -1    0    0    0    0  0.00000000000E+00  0.00000000000E+00  0.18250000000E+03  0.18250000000E+03  0.00000000000E+00 0.  1.
         11   -1    0    0    0    0 -0.00000000000E+00 -0.00000000000E+00 -0.18250000000E+03  0.18250000000E+03  0.00000000000E+00 0.  1.
         23    2    1    2    0    0  0.36405088652E+01 -0.19936545802E+02 -0.14058131226E+03  0.16788022658E+03  0.89498301426E+02 0.  0.
        -11    1    1    2    0    0 -0.49881647050E+02  0.11173237325E+02  0.14107753774E+03  0.15005296265E+03  0.00000000000E+00 0.  1.
         11    1    1    2    0    0  0.46241138185E+02  0.87633084766E+01 -0.49622548754E+00  0.47066810767E+02  0.00000000000E+00 0.  1.
        -15    1    3    3    0    0 -0.17610737430E+02 -0.42489810833E+02 -0.34981875434E+02  0.57813592133E+02  0.17770000000E+01 0.  1.
         15    1    3    3    0    0  0.21251246296E+02  0.22553265031E+02 -0.10559943682E+03  0.11006663445E+03  0.17770000000E+01 0. -1.
</event>
<event>
 7    1  0.2537562E-007  0.1561437E+03  0.7546771E-02  0.1091614E+00
        -11   -1    0    0    0    0  0.00000000000E+00  0.00000000000E+00  0.18250000000E+03  0.18250000000E+03  0.00000000000E+00 0. -1.
         11   -1    0    0    0    0 -0.00000000000E+00 -0.00000000000E+00 -0.18250000000E+03  0.18250000000E+03  0.00000000000E+00 0. -1.
         23    2    1    2    0    0 -0.65481908876E+02  0.29318531476E+02 -0.77577922128E+02  0.14059465061E+03  0.92741927415E+02 0.  0.
        -11    1    1    2    0    0  0.47554083549E+02 -0.28409063097E+00  0.14295579728E+03  0.15065799530E+03  0.00000000000E+00 0. -1.
         11    1    1    2    0    0  0.17927825326E+02 -0.29034440845E+02 -0.65377875155E+02  0.73747354094E+02  0.00000000000E+00 0. -1.
        -15    1    3    3    0    0  0.18137484494E+02 -0.10063757763E+02 -0.30294111540E+02  0.36757835723E+02  0.17770000000E+01 0. -1.
         15    1    3    3    0    0 -0.83619393369E+02  0.39382289239E+02 -0.47283810588E+02  0.10383681489E+03  0.17770000000E+01 0.  1.
</event>
<event>
 7    1  0.2537562E-007  0.1541439E+03  0.7546771E-02  0.1093574E+00
        -11   -1    0    0    0    0  0.00000000000E+00  0.00000000000E+00  0.18250000000E+03  0.18250000000E+03  0.00000000000E+00 0. -1.
         11   -1    0    0    0    0 -0.00000000000E+00 -0.00000000000E+00 -0.18250000000E+03  0.18250000000E+03  0.00000000000E+00 0. -1.
         23    2    1    2    0    0  0.32416237249E+02 -0.44872538029E+02 -0.68729609495E+02  0.12738923522E+03  0.91868933392E+02 0.  0.
        -11    1    1    2    0    0 -0.70014875749E+02  0.52154879371E+02  0.13517557893E+03  0.16091815127E+03  0.00000000000E+00 0. -1.
         11    1    1    2    0    0  0.37598638500E+02 -0.72823413416E+01 -0.66445969437E+02  0.76692613509E+02  0.00000000000E+00 0. -1.
        -15    1    3    3    0    0  0.41387139010E+02 -0.43892968009E+02 -0.23758707940E+01  0.60401079519E+02  0.17770000000E+01 0.  1.
         15    1    3    3    0    0 -0.89709017607E+01 -0.97957001999E+00 -0.66353738701E+02  0.66988155703E+02  0.17770000000E+01 0. -1.
</event>
<event>
 7    1  0.2537562E-007  0.1348880E+03  0.7546771E-02  0.1114295E+00
        -11   -1    0    0    0    0  0.00000000000E+00  0.00000000000E+00  0.18250000000E+03  0.18250000000E+03  0.00000000000E+00 0. -1.
         11   -1    0    0    0    0 -0.00000000000E+00 -0.00000000000E+00 -0.18250000000E+03  0.18250000000E+03  0.00000000000E+00 0.  1.
         23    2    1    2    0    0  0.58187755071E+02  0.61623320136E+02  0.82425065324E+02  0.14889651263E+03  0.90515366952E+02 0.  0.
        -11    1    1    2    0    0  0.70796728835E+00 -0.10897381743E+03 -0.67928901975E+01  0.10918762503E+03  0.00000000000E+00 0. -1.
         11    1    1    2    0    0 -0.58895722359E+02  0.47350497291E+02 -0.75632175127E+02  0.10691586234E+03  0.00000000000E+00 0.  1.
        -15    1    3    3    0    0 -0.30383089549E+01 -0.56752182901E+00  0.58198006470E+02  0.58307110102E+02  0.17770000000E+01 0.  1.
         15    1    3    3    0    0  0.61226064026E+02  0.62190841965E+02  0.24227058854E+02  0.90589402527E+02  0.17770000000E+01 0. -1.
</event>
<event>
 7    1  0.2537562E-007  0.1918029E+03  0.7546771E-02  0.1061282E+00
        -11   -1    0    0    0    0  0.00000000000E+00  0.00000000000E+00  0.18250000000E+03  0.18250000000E+03  0.00000000000E+00 0.  1.
         11   -1    0    0    0    0 -0.00000000000E+00 -0.00000000000E+00 -0.18250000000E+03  0.18250000000E+03  0.00000000000E+00 0.  1.
         23    2    1    2    0    0 -0.11525837437E+01  0.47512187162E+02  0.16080240023E+03  0.19180289429E+03  0.93124658189E+02 0.  0.
        -11    1    1    2    0    0  0.57687649495E+01 -0.37321558735E+02 -0.15684966560E+03  0.16133194040E+03  0.00000000000E+00 0.  1.
         11    1    1    2    0    0 -0.46161812058E+01 -0.10190628427E+02 -0.39527346304E+01  0.11865165305E+02  0.00000000000E+00 0.  1.
        -15    1    3    3    0    0  0.36602481734E+02  0.22714872320E+02  0.13035526875E+03  0.13730025824E+03  0.17770000000E+01 0.  1.
         15    1    3    3    0    0 -0.37755065478E+02  0.24797314842E+02  0.30447131480E+02  0.54502636055E+02  0.17770000000E+01 0. -1.
</event>
<event>
 7    1  0.2611362E-007  0.1797167E+03  0.7546771E-02  0.1070692E+00
        -11   -1    0    0    0    0  0.00000000000E+00  0.00000000000E+00  0.18250000000E+03  0.18250000000E+03  0.00000000000E+00 0.  1.
         11   -1    0    0    0    0 -0.00000000000E+00 -0.00000000000E+00 -0.18250000000E+03  0.18250000000E+03  0.00000000000E+00 0.  1.
         23    2    1    2    0    0 -0.33063011615E+02 -0.28911604232E+02  0.14136828322E+03  0.17442002434E+03  0.92240499763E+02 0.  0.
        -11    1    1    2    0    0  0.83231824740E+01 -0.27615854405E+02  0.71824718908E+01  0.29723705749E+02  0.00000000000E+00 0.  1.
         11    1    1    2    0    0  0.24739829140E+02  0.56527458636E+02 -0.14855075511E+03  0.16085626991E+03  0.00000000000E+00 0.  1.
        -15    1    3    3    0    0 -0.24204920122E+02 -0.82516264699E+01  0.14855728257E+03  0.15075274933E+03  0.17770000000E+01 0.  1.
         15    1    3    3    0    0 -0.88580914921E+01 -0.20659977762E+02 -0.71889993510E+01  0.23667275016E+02  0.17770000000E+01 0. -1.
</event>
<event>
 7    1  0.2537562E-007  0.1863995E+03  0.7546771E-02  0.1065393E+00
        -11   -1    0    0    0    0  0.00000000000E+00  0.00000000000E+00  0.18250000000E+03  0.18250000000E+03  0.00000000000E+00 0.  1.
         11   -1    0    0    0    0 -0.00000000000E+00 -0.00000000000E+00 -0.18250000000E+03  0.18250000000E+03  0.00000000000E+00 0. -1.
         23    2    1    2    0    0  0.13640803060E+02  0.39279941754E+02  0.15776846760E+03  0.18639946371E+03  0.90138146020E+02 0.  0.
        -11    1    1    2    0    0 -0.34831868823E+02  0.11177192443E+00 -0.42453616150E+02  0.54914306906E+02  0.00000000000E+00 0.  1.
         11    1    1    2    0    0  0.21191065763E+02 -0.39391713678E+02 -0.11531485145E+03  0.12368622939E+03  0.00000000000E+00 0. -1.
        -15    1    3    3    0    0  0.46274922383E+02  0.19374969668E+02  0.12930586749E+03  0.13870804947E+03  0.17770000000E+01 0.  1.
         15    1    3    3    0    0 -0.32634119323E+02  0.19904972086E+02  0.28462600113E+02  0.47691414237E+02  0.17770000000E+01 0. -1.
</event>
<event>
 7    1  0.2537562E-007  0.1273086E+03  0.7546771E-02  0.1123525E+00
        -11   -1    0    0    0    0  0.00000000000E+00  0.00000000000E+00  0.18250000000E+03  0.18250000000E+03  0.00000000000E+00 0.  1.
         11   -1    0    0    0    0 -0.00000000000E+00 -0.00000000000E+00 -0.18250000000E+03  0.18250000000E+03  0.00000000000E+00 0.  1.
         23    2    1    2    0    0  0.20387472502E+02 -0.35051072352E+01  0.46208868055E+02  0.10539815063E+03  0.92442283930E+02 0.  0.
        -11    1    1    2    0    0 -0.91537195224E+02  0.98947551325E+02 -0.39073467385E+02  0.14034390573E+03  0.00000000000E+00 0.  1.
         11    1    1    2    0    0  0.71149722723E+02 -0.95442444089E+02 -0.71354006696E+01  0.11925794363E+03  0.00000000000E+00 0.  1.
        -15    1    3    3    0    0  0.55808820710E+02  0.94916300008E+01  0.31920060648E+02  0.65013564046E+02  0.17770000000E+01 0.  1.
         15    1    3    3    0    0 -0.35421348209E+02 -0.12996737236E+02  0.14288807406E+02  0.40384586587E+02  0.17770000000E+01 0. -1.
</event>
<event>
 7    1  0.2537562E-007  0.1361208E+03  0.7546771E-02  0.1112856E+00
        -11   -1    0    0    0    0  0.00000000000E+00  0.00000000000E+00  0.18250000000E+03  0.18250000000E+03  0.00000000000E+00 0.  1.
         11   -1    0    0    0    0 -0.00000000000E+00 -0.00000000000E+00 -0.18250000000E+03  0.18250000000E+03  0.00000000000E+00 0. -1.
         23    2    1    2    0    0  0.50145057248E+02  0.86222062924E+01  0.41263250644E+02  0.11971750760E+03  0.10020357561E+03 0.  0.
        -11    1    1    2    0    0 -0.61912670175E+02  0.39526320017E+02  0.83395049952E+02  0.11113164742E+03  0.00000000000E+00 0.  1.
         11    1    1    2    0    0  0.11767612927E+02 -0.48148526309E+02 -0.12465830060E+03  0.13415084497E+03  0.00000000000E+00 0. -1.
        -15    1    3    3    0    0  0.25121877524E+01  0.97558102633E+01 -0.31278863867E+02  0.32909147285E+02  0.17770000000E+01 0. -1.
         15    1    3    3    0    0  0.47632869496E+02 -0.11336039709E+01  0.72542114512E+02  0.86808360319E+02  0.17770000000E+01 0.  1.
</event>
<event>
 7    1  0.2537562E-007  0.1755844E+03  0.7546771E-02  0.1074097E+00
        -11   -1    0    0    0    0  0.00000000000E+00  0.00000000000E+00  0.18250000000E+03  0.18250000000E+03  0.00000000000E+00 0. -1.
         11   -1    0    0    0    0 -0.00000000000E+00 -0.00000000000E+00 -0.18250000000E+03  0.18250000000E+03  0.00000000000E+00 0. -1.
         23    2    1    2    0    0 -0.85347124829E+02 -0.79012252686E+02 -0.69151517798E+02  0.16335192532E+03  0.91514213660E+02 0.  0.
        -11    1    1    2    0    0  0.12095903446E+03  0.76648915957E+02  0.80401036720E+02  0.16422688891E+03  0.00000000000E+00 0. -1.
         11    1    1    2    0    0 -0.35611909634E+02  0.23633367292E+01 -0.11249518922E+02  0.37421185767E+02  0.00000000000E+00 0. -1.
        -15    1    3    3    0    0 -0.61308063559E+02 -0.53032605941E+02 -0.90871124574E+02  0.12178610331E+03  0.17770000000E+01 0.  1.
         15    1    3    3    0    0 -0.24039061270E+02 -0.25979646745E+02  0.21719606775E+02  0.41565822008E+02  0.17770000000E+01 0. -1.
</event>
<event>
 7    1  0.2537562E-007  0.1538807E+03  0.7546771E-02  0.1093835E+00
        -11   -1    0    0    0    0  0.00000000000E+00  0.00000000000E+00  0.18250000000E+03  0.18250000000E+03  0.00000000000E+00 0. -1.
         11   -1    0    0    0    0 -0.00000000000E+00 -0.00000000000E+00 -0.18250000000E+03  0.18250000000E+03  0.00000000000E+00 0.  1.
         23    2    1    2    0    0  0.15684521234E+01  0.13490973433E+02 -0.83722265863E+02  0.12592785630E+03  0.93080292136E+02 0.  0.
        -11    1    1    2    0    0 -0.22245201654E+02 -0.31626322208E+02  0.15653418298E+03  0.16123902658E+03  0.00000000000E+00 0. -1.
         11    1    1    2    0    0  0.20676749531E+02  0.18135348775E+02 -0.72811917115E+02  0.77833117119E+02  0.00000000000E+00 0.  1.
        -15    1    3    3    0    0 -0.29079735662E+02  0.13024694973E+02  0.47637241062E+01  0.32266460941E+02  0.17770000000E+01 0. -1.
         15    1    3    3    0    0  0.30648187785E+02  0.46627845910E+00 -0.88485989969E+02  0.93661395356E+02  0.17770000000E+01 0.  1.
</event>
<event>
 7    1  0.2537562E-007  0.1806960E+03  0.7546771E-02  0.1069900E+00
        -11   -1    0    0    0    0  0.00000000000E+00  0.00000000000E+00  0.18250000000E+03  0.18250000000E+03  0.00000000000E+00 0.  1.
         11   -1    0    0    0    0 -0.00000000000E+00 -0.00000000000E+00 -0.18250000000E+03  0.18250000000E+03  0.00000000000E+00 0.  1.
         23    2    1    2    0    0 -0.99849032771E+02 -0.59917023459E+02  0.98824361491E+02  0.17766196603E+03  0.90761449440E+02 0.  0.
        -11    1    1    2    0    0  0.12306900311E+03  0.49149736938E+02 -0.90298098635E+02  0.16036029055E+03  0.00000000000E+00 0.  1.
         11    1    1    2    0    0 -0.23219970342E+02  0.10767286521E+02 -0.85262628561E+01  0.26977743419E+02  0.00000000000E+00 0.  1.
        -15    1    3    3    0    0 -0.53693405328E+01  0.89503833764E+01 -0.12384787911E+02  0.16293553355E+02  0.17770000000E+01 0. -1.
         15    1    3    3    0    0 -0.94479692238E+02 -0.68867406836E+02  0.11120914940E+03  0.16136841268E+03  0.17770000000E+01 0.  1.
</event>
<event>
 7    1  0.2537562E-007  0.1555462E+03  0.7546771E-02  0.1092197E+00
        -11   -1    0    0    0    0  0.00000000000E+00  0.00000000000E+00  0.18250000000E+03  0.18250000000E+03  0.00000000000E+00 0.  1.
         11   -1    0    0    0    0 -0.00000000000E+00 -0.00000000000E+00 -0.18250000000E+03  0.18250000000E+03  0.00000000000E+00 0. -1.
         23    2    1    2    0    0 -0.46043447899E+02 -0.41720359127E+02  0.14377372706E+03  0.18133137923E+03  0.91376129495E+02 0.  0.
        -11    1    1    2    0    0  0.38311225306E+02 -0.18260059055E+02 -0.10111497386E+03  0.10966046543E+03  0.00000000000E+00 0. -1.
         11    1    1    2    0    0  0.77322225931E+01  0.59980418183E+02 -0.42658753202E+02  0.74008155337E+02  0.00000000000E+00 0.  1.
        -15    1    3    3    0    0  0.53684917471E+01 -0.93174509274E+01 -0.10730924526E+02  0.15295295538E+02  0.17770000000E+01 0. -1.
         15    1    3    3    0    0 -0.51411939646E+02 -0.32402908200E+02  0.15450465158E+03  0.16603608369E+03  0.17770000000E+01 0.  1.
</event>
<event>
 7    1  0.2537562E-007  0.1375153E+03  0.7546771E-02  0.1111250E+00
        -11   -1    0    0    0    0  0.00000000000E+00  0.00000000000E+00  0.18250000000E+03  0.18250000000E+03  0.00000000000E+00 0.  1.
         11   -1    0    0    0    0 -0.00000000000E+00 -0.00000000000E+00 -0.18250000000E+03  0.18250000000E+03  0.00000000000E+00 0. -1.
         23    2    1    2    0    0  0.40228965666E+02 -0.40985486754E+01  0.74618244365E+02  0.12402013140E+03  0.90431978975E+02 0.  0.
        -11    1    1    2    0    0 -0.83470238622E+02 -0.30140900120E+02  0.52008504454E+02  0.10286223375E+03  0.00000000000E+00 0.  1.
         11    1    1    2    0    0  0.43241272956E+02  0.34239448795E+02 -0.12662674882E+03  0.13811763485E+03  0.00000000000E+00 0. -1.
        -15    1    3    3    0    0  0.52940895146E+02 -0.35061603133E+02  0.36506716187E+02  0.73266311828E+02  0.17770000000E+01 0. -1.
         15    1    3    3    0    0 -0.12711929480E+02  0.30963054457E+02  0.38111528178E+02  0.50753819575E+02  0.17770000000E+01 0.  1.
</event>
<event>
 7    1  0.2537562E-007  0.1714825E+03  0.7546771E-02  0.1077579E+00
        -11   -1    0    0    0    0  0.00000000000E+00  0.00000000000E+00  0.18250000000E+03  0.18250000000E+03  0.00000000000E+00 0.  1.
         11   -1    0    0    0    0 -0.00000000000E+00 -0.00000000000E+00 -0.18250000000E+03  0.18250000000E+03  0.00000000000E+00 0. -1.
         23    2    1    2    0    0 -0.65658001346E+02  0.11815310143E+02  0.11071129552E+03  0.15839897287E+03  0.91556916474E+02 0.  0.
        -11    1    1    2    0    0  0.67977113599E+01  0.29534009074E+02  0.33665461008E+02  0.45297128348E+02  0.00000000000E+00 0.  1.
         11    1    1    2    0    0  0.58860289986E+02 -0.41349319217E+02 -0.14437675653E+03  0.16130389879E+03  0.00000000000E+00 0. -1.
        -15    1    3    3    0    0  0.74723285959E+01  0.14067589781E+02  0.75500024504E+02  0.77182538220E+02  0.17770000000E+01 0.  1.
         15    1    3    3    0    0 -0.73130329942E+02 -0.22522796380E+01  0.35211271019E+02  0.81216434647E+02  0.17770000000E+01 0. -1.
</event>
<event>
 7    1  0.2537562E-007  0.1468537E+03  0.7546771E-02  0.1101006E+00
        -11   -1    0    0    0    0  0.00000000000E+00  0.00000000000E+00  0.18250000000E+03  0.18250000000E+03  0.00000000000E+00 0. -1.
         11   -1    0    0    0    0 -0.00000000000E+00 -0.00000000000E+00 -0.18250000000E+03  0.18250000000E+03  0.00000000000E+00 0.  1.
         23    2    1    2    0    0 -0.28348814721E+02 -0.39796469857E+02  0.13187174223E+03  0.16802174991E+03  0.91944209896E+02 0.  0.
        -11    1    1    2    0    0 -0.11826618648E+02  0.78806741937E+02 -0.39460652918E+02  0.88924207121E+02  0.00000000000E+00 0. -1.
         11    1    1    2    0    0  0.40175433369E+02 -0.39010272080E+02 -0.92411089314E+02  0.10805404297E+03  0.00000000000E+00 0.  1.
        -15    1    3    3    0    0 -0.24487267846E+02  0.10967007647E+02  0.25526818186E+00  0.26890973097E+02  0.17770000000E+01 0.  1.
         15    1    3    3    0    0 -0.38615468750E+01 -0.50763477504E+02  0.13161647405E+03  0.14113077681E+03  0.17770000000E+01 0. -1.
</event>
<event>
 7    1  0.2537562E-007  0.1584802E+03  0.7546771E-02  0.1089365E+00
        -11   -1    0    0    0    0  0.00000000000E+00  0.00000000000E+00  0.18250000000E+03  0.18250000000E+03  0.00000000000E+00 0.  1.
         11   -1    0    0    0    0 -0.00000000000E+00 -0.00000000000E+00 -0.18250000000E+03  0.18250000000E+03  0.00000000000E+00 0. -1.
         23    2    1    2    0    0  0.31599131911E+01  0.38984277357E+01  0.89636329554E+02  0.13353042669E+03  0.98845943188E+02 0.  0.
        -11    1    1    2    0    0 -0.35400214091E+01 -0.31360625692E+02  0.66143595388E+02  0.73287078031E+02  0.00000000000E+00 0.  1.
         11    1    1    2    0    0  0.38010821797E+00  0.27462197956E+02 -0.15577992494E+03  0.15818249528E+03  0.00000000000E+00 0. -1.
        -15    1    3    3    0    0  0.24564753582E+02 -0.22101849211E+02  0.93878512172E+02  0.99540201094E+02  0.17770000000E+01 0.  1.
         15    1    3    3    0    0 -0.21404840391E+02  0.26000276947E+02 -0.42421826177E+01  0.33990225593E+02  0.17770000000E+01 0. -1.
</event>
<event>
 7    1  0.2537562E-007  0.1694317E+03  0.7546771E-02  0.1079361E+00
        -11   -1    0    0    0    0  0.00000000000E+00  0.00000000000E+00  0.18250000000E+03  0.18250000000E+03  0.00000000000E+00 0. -1.
         11   -1    0    0    0    0 -0.00000000000E+00 -0.00000000000E+00 -0.18250000000E+03  0.18250000000E+03  0.00000000000E+00 0. -1.
         23    2    1    2    0    0 -0.36856214847E+02  0.52517209808E+02  0.10882733260E+03  0.15427174352E+03  0.88543461801E+02 0.  0.
        -11    1    1    2    0    0 -0.17833556607E+02 -0.16816382434E+02  0.40727398473E+02  0.47534697283E+02  0.00000000000E+00 0. -1.
         11    1    1    2    0    0  0.54689771455E+02 -0.35700827374E+02 -0.14955473108E+03  0.16319355920E+03  0.00000000000E+00 0. -1.
        -15    1    3    3    0    0 -0.94654490121E+00  0.14968447435E+02  0.10049304602E+03  0.10162165317E+03  0.17770000000E+01 0.  1.
         15    1    3    3    0    0 -0.35909669946E+02  0.37548762373E+02  0.83342865797E+01  0.52650090344E+02  0.17770000000E+01 0. -1.
</event>
<event>
 7    1  0.2537562E-007  0.1318557E+03  0.7546771E-02  0.1117905E+00
        -11   -1    0    0    0    0  0.00000000000E+00  0.00000000000E+00  0.18250000000E+03  0.18250000000E+03  0.00000000000E+00 0.  1.
         11   -1    0    0    0    0 -0.00000000000E+00 -0.00000000000E+00 -0.18250000000E+03  0.18250000000E+03  0.00000000000E+00 0.  1.
         23    2    1    2    0    0  0.67188401206E+01  0.37393213404E+01  0.37044548499E+02  0.98588408515E+02  0.91039828555E+02 0.  0.
        -11    1    1    2    0    0 -0.83058227052E+02 -0.78570976010E+02  0.53582473609E+02  0.12626618245E+03  0.00000000000E+00 0.  1.
         11    1    1    2    0    0  0.76339386932E+02  0.74831654670E+02 -0.90627022108E+02  0.14014540904E+03  0.00000000000E+00 0.  1.
        -15    1    3    3    0    0 -0.39312680151E+02 -0.98918305021E+01  0.29010764228E+02  0.49881031479E+02  0.17770000000E+01 0.  1.
         15    1    3    3    0    0  0.46031520271E+02  0.13631151842E+02  0.80337842711E+01  0.48707377036E+02  0.17770000000E+01 0. -1.
</event>
<event>
 7    1  0.2537562E-007  0.1527125E+03  0.7546771E-02  0.1094997E+00
        -11   -1    0    0    0    0  0.00000000000E+00  0.00000000000E+00  0.18250000000E+03  0.18250000000E+03  0.00000000000E+00 0.  1.
         11   -1    0    0    0    0 -0.00000000000E+00 -0.00000000000E+00 -0.18250000000E+03  0.18250000000E+03  0.00000000000E+00 0.  1.
         23    2    1    2    0    0 -0.30861958962E+02 -0.37494236996E+02  0.92041422439E+02  0.13720087552E+03  0.89410169889E+02 0.  0.
        -11    1    1    2    0    0 -0.51024063918E+02 -0.57811955946E+02 -0.10046531782E+02  0.77759952096E+02  0.00000000000E+00 0.  1.
         11    1    1    2    0    0  0.81886022881E+02  0.95306192942E+02 -0.81994890657E+02  0.15003917239E+03  0.00000000000E+00 0.  1.
        -15    1    3    3    0    0 -0.49632726183E+02 -0.16303963785E+02  0.13926308063E+02  0.54095531504E+02  0.17770000000E+01 0. -1.
         15    1    3    3    0    0  0.18770767220E+02 -0.21190273211E+02  0.78115114376E+02  0.83105344015E+02  0.17770000000E+01 0.  1.
</event>
<event>
 7    1  0.2537562E-007  0.1318311E+03  0.7546771E-02  0.1117935E+00
        -11   -1    0    0    0    0  0.00000000000E+00  0.00000000000E+00  0.18250000000E+03  0.18250000000E+03  0.00000000000E+00 0.  1.
         11   -1    0    0    0    0 -0.00000000000E+00 -0.00000000000E+00 -0.18250000000E+03  0.18250000000E+03  0.00000000000E+00 0. -1.
         23    2    1    2    0    0 -0.15618110913E+02 -0.34188304231E+02  0.74085241298E+01  0.98569071028E+02  0.90819656456E+02 0.  0.
        -11    1    1    2    0    0  0.10519725793E+03 -0.18218827804E+02  0.77838158574E+02  0.13212557547E+03  0.00000000000E+00 0.  1.
         11    1    1    2    0    0 -0.89579147016E+02  0.52407132035E+02 -0.85246682704E+02  0.13430535351E+03  0.00000000000E+00 0. -1.
        -15    1    3    3    0    0  0.14375763027E+01 -0.24123816320E+02 -0.40220668478E+02  0.46956203438E+02  0.17770000000E+01 0. -1.
         15    1    3    3    0    0 -0.17055687216E+02 -0.10064487911E+02  0.47629192608E+02  0.51612867590E+02  0.17770000000E+01 0.  1.
</event>
<event>
 7    1  0.2537562E-007  0.1627321E+03  0.7546771E-02  0.1085379E+00
        -11   -1    0    0    0    0  0.00000000000E+00  0.00000000000E+00  0.18250000000E+03  0.18250000000E+03  0.00000000000E+00 0. -1.
         11   -1    0    0    0    0 -0.00000000000E+00 -0.00000000000E+00 -0.18250000000E+03  0.18250000000E+03  0.00000000000E+00 0. -1.
         23    2    1    2    0    0  0.23039215013E+02 -0.35272658497E+02  0.13977550449E+03  0.17206323204E+03  0.91069195120E+02 0.  0.
        -11    1    1    2    0    0  0.32640773022E+02  0.47306388030E+02 -0.20970741371E+02  0.61180768265E+02  0.00000000000E+00 0. -1.
         11    1    1    2    0    0 -0.55679988035E+02 -0.12033729533E+02 -0.11880476312E+03  0.13175599969E+03  0.00000000000E+00 0. -1.
        -15    1    3    3    0    0 -0.10375694315E+02 -0.24694900231E+02 -0.11146362037E+01  0.26868071624E+02  0.17770000000E+01 0.  1.
         15    1    3    3    0    0  0.33414909328E+02 -0.10577758267E+02  0.14089014070E+03  0.14519516042E+03  0.17770000000E+01 0. -1.
</event>
<event>
 7    1  0.2537562E-007  0.1458322E+03  0.7546771E-02  0.1102085E+00
        -11   -1    0    0    0    0  0.00000000000E+00  0.00000000000E+00  0.18250000000E+03  0.18250000000E+03  0.00000000000E+00 0.  1.
         11   -1    0    0    0    0 -0.00000000000E+00 -0.00000000000E+00 -0.18250000000E+03  0.18250000000E+03  0.00000000000E+00 0. -1.
         23    2    1    2    0    0  0.48894101167E+02  0.10438207304E+01 -0.71806073974E+02  0.12640115955E+03  0.91811862984E+02 0.  0.
        -11    1    1    2    0    0 -0.46888910655E+02  0.77116847583E+02  0.11740573098E+03  0.14808674414E+03  0.00000000000E+00 0.  1.
         11    1    1    2    0    0 -0.20051905111E+01 -0.78160668313E+02 -0.45599657004E+02  0.90512096313E+02  0.00000000000E+00 0. -1.
        -15    1    3    3    0    0  0.29503187917E+02  0.35061818640E+02 -0.74094760175E+02  0.87137594860E+02  0.17770000000E+01 0. -1.
         15    1    3    3    0    0  0.19390913249E+02 -0.34017997910E+02  0.22886862002E+01  0.39263564687E+02  0.17770000000E+01 0.  1.
</event>
<event>
 7    1  0.2537562E-007  0.1864922E+03  0.7546771E-02  0.1065321E+00
        -11   -1    0    0    0    0  0.00000000000E+00  0.00000000000E+00  0.18250000000E+03  0.18250000000E+03  0.00000000000E+00 0. -1.
         11   -1    0    0    0    0 -0.00000000000E+00 -0.00000000000E+00 -0.18250000000E+03  0.18250000000E+03  0.00000000000E+00 0.  1.
         23    2    1    2    0    0 -0.20736856713E+02  0.11449309885E+02  0.15492484681E+03  0.18147388924E+03  0.91487487635E+02 0.  0.
        -11    1    1    2    0    0 -0.12524353010E+02 -0.11823000887E+01  0.93052054450E+01  0.15647495014E+02  0.00000000000E+00 0. -1.
         11    1    1    2    0    0  0.33261209724E+02 -0.10267009796E+02 -0.16423005225E+03  0.16787861575E+03  0.00000000000E+00 0.  1.
        -15    1    3    3    0    0 -0.21818429323E+02 -0.37907831578E+02  0.88051397005E+02  0.98332363933E+02  0.17770000000E+01 0.  1.
         15    1    3    3    0    0  0.10815726100E+01  0.49357141462E+02  0.66873449802E+02  0.83141525305E+02  0.17770000000E+01 0. -1.
</event>
<event>
 6    1  0.2537562E-007  0.1524978E+03  0.7546771E-02  0.1095212E+00
        -11   -1    0    0    0    0  0.00000000000E+00  0.00000000000E+00  0.18250000000E+03  0.18250000000E+03  0.00000000000E+00 0.  1.
         11   -1    0    0    0    0 -0.00000000000E+00 -0.00000000000E+00 -0.18250000000E+03  0.18250000000E+03  0.00000000000E+00 0. -1.
        -11    1    1    2    0    0 -0.12173669690E+02  0.40243266048E+02  0.46877466710E+02  0.62969957766E+02  0.00000000000E+00 0.  1.
         11    1    1    2    0    0  0.33733418812E+02  0.31617230024E+01 -0.16240295638E+03  0.16589954876E+03  0.00000000000E+00 0. -1.
        -15    1    1    2    0    0  0.59312564140E+01  0.97694016178E+01  0.25563420283E+02  0.28058282132E+02  0.17770000000E+01 0. -1.
         15    1    1    2    0    0 -0.27491005536E+02 -0.53174390668E+02  0.89962069385E+02  0.10807221135E+03  0.17770000000E+01 0.  1.
</event>
<event>
 7    1  0.2537562E-007  0.1686922E+03  0.7546771E-02  0.1080010E+00
        -11   -1    0    0    0    0  0.00000000000E+00  0.00000000000E+00  0.18250000000E+03  0.18250000000E+03  0.00000000000E+00 0.  1.
         11   -1    0    0    0    0 -0.00000000000E+00 -0.00000000000E+00 -0.18250000000E+03  0.18250000000E+03  0.00000000000E+00 0.  1.
         23    2    1    2    0    0 -0.32661364812E+02  0.25864833810E+02  0.13613015536E+03  0.16890199451E+03  0.90888449055E+02 0.  0.
        -11    1    1    2    0    0 -0.44983933994E+02  0.12181612593E+02 -0.18578181910E+02  0.50170657221E+02  0.00000000000E+00 0.  1.
         11    1    1    2    0    0  0.77645298806E+02 -0.38046446403E+02 -0.11755197345E+03  0.14592734827E+03  0.00000000000E+00 0.  1.
        -15    1    3    3    0    0 -0.32234574383E+02  0.30481239130E+02  0.14880591664E+03  0.15528854523E+03  0.17770000000E+01 0.  1.
         15    1    3    3    0    0 -0.42679042865E+00 -0.46164053200E+01 -0.12675761280E+02  0.13613449276E+02  0.17770000000E+01 0. -1.
</event>
<event>
 7    1  0.2537562E-007  0.1242237E+03  0.7546771E-02  0.1127488E+00
        -11   -1    0    0    0    0  0.00000000000E+00  0.00000000000E+00  0.18250000000E+03  0.18250000000E+03  0.00000000000E+00 0.  1.
         11   -1    0    0    0    0 -0.00000000000E+00 -0.00000000000E+00 -0.18250000000E+03  0.18250000000E+03  0.00000000000E+00 0.  1.
         23    2    1    2    0    0  0.64476550555E+01  0.53288447315E+02 -0.30898139926E+02  0.10894910643E+03  0.89632482218E+02 0.  0.
        -11    1    1    2    0    0 -0.23892554049E+02 -0.24844880383E+02  0.13884762217E+03  0.14306216971E+03  0.00000000000E+00 0.  1.
         11    1    1    2    0    0  0.17444898994E+02 -0.28443566932E+02 -0.10794948225E+03  0.11298872385E+03  0.00000000000E+00 0.  1.
        -15    1    3    3    0    0 -0.14609202047E+02  0.69770537316E+02 -0.46822258822E+01  0.71459342496E+02  0.17770000000E+01 0.  1.
         15    1    3    3    0    0  0.21056857102E+02 -0.16482090000E+02 -0.26215914044E+02  0.37489763936E+02  0.17770000000E+01 0. -1.
</event>
<event>
 7    1  0.2537562E-007  0.1604646E+03  0.7546771E-02  0.1087488E+00
        -11   -1    0    0    0    0  0.00000000000E+00  0.00000000000E+00  0.18250000000E+03  0.18250000000E+03  0.00000000000E+00 0.  1.
         11   -1    0    0    0    0 -0.00000000000E+00 -0.00000000000E+00 -0.18250000000E+03  0.18250000000E+03  0.00000000000E+00 0. -1.
         23    2    1    2    0    0 -0.14454748941E+02 -0.27027024865E+02  0.10357689248E+03  0.14094619198E+03  0.90544224222E+02 0.  0.
        -11    1    1    2    0    0  0.17734483913E+02 -0.52159231481E+02  0.34389402097E+02  0.64944039950E+02  0.00000000000E+00 0.  1.
         11    1    1    2    0    0 -0.32797349721E+01  0.79186256346E+02 -0.13796629457E+03  0.15910976807E+03  0.00000000000E+00 0. -1.
        -15    1    3    3    0    0  0.20454607421E+01 -0.10922700114E+02 -0.15773271139E+02  0.19376354117E+02  0.17770000000E+01 0. -1.
         15    1    3    3    0    0 -0.16500209683E+02 -0.16104324751E+02  0.11935016362E+03  0.12156983787E+03  0.17770000000E+01 0.  1.
</event>
<event>
 7    1  0.2537562E-007  0.1508772E+03  0.7546771E-02  0.1096847E+00
        -11   -1    0    0    0    0  0.00000000000E+00  0.00000000000E+00  0.18250000000E+03  0.18250000000E+03  0.00000000000E+00 0. -1.
         11   -1    0    0    0    0 -0.00000000000E+00 -0.00000000000E+00 -0.18250000000E+03  0.18250000000E+03  0.00000000000E+00 0.  1.
         23    2    1    2    0    0  0.59283775118E+02 -0.10070118219E+03 -0.70070871928E+02  0.16295032110E+03  0.89373295608E+02 0.  0.
        -11    1    1    2    0    0  0.11625205045E+02  0.72358411040E+02  0.96560440511E+02  0.12122212551E+03  0.00000000000E+00 0. -1.
         11    1    1    2    0    0 -0.70908980163E+02  0.28342771146E+02 -0.26489568583E+02  0.80827553394E+02  0.00000000000E+00 0.  1.
        -15    1    3    3    0    0  0.84871722790E+01 -0.59283467061E+01 -0.53037254212E+02  0.54067415801E+02  0.17770000000E+01 0.  1.
         15    1    3    3    0    0  0.50796602839E+02 -0.94772835480E+02 -0.17033617715E+02  0.10888290530E+03  0.17770000000E+01 0. -1.
</event>
<event>
 7    1  0.2537562E-007  0.1982415E+03  0.7546771E-02  0.1056572E+00
        -11   -1    0    0    0    0  0.00000000000E+00  0.00000000000E+00  0.18250000000E+03  0.18250000000E+03  0.00000000000E+00 0. -1.
         11   -1    0    0    0    0 -0.00000000000E+00 -0.00000000000E+00 -0.18250000000E+03  0.18250000000E+03  0.00000000000E+00 0.  1.
         23    2    1    2    0    0  0.40256840980E+02  0.88757756724E+02 -0.12595613559E+03  0.19994639047E+03  0.12089275555E+03 0.  0.
        -11    1    1    2    0    0 -0.33066492807E+02 -0.82715949836E+02  0.12749942477E+03  0.15553592710E+03  0.00000000000E+00 0. -1.
         11    1    1    2    0    0 -0.71903481727E+01 -0.60418068887E+01 -0.15432891804E+01  0.95176824290E+01  0.00000000000E+00 0.  1.
        -15    1    3    3    0    0 -0.15410482979E+02  0.34925669232E+02  0.13410639951E+02  0.40500473452E+02  0.17770000000E+01 0. -1.
         15    1    3    3    0    0  0.55667323959E+02  0.53832087492E+02 -0.13936677554E+03  0.15944591702E+03  0.17770000000E+01 0.  1.
</event>
<event>
 7    1  0.2537562E-007  0.1744889E+03  0.7546771E-02  0.1075017E+00
        -11   -1    0    0    0    0  0.00000000000E+00  0.00000000000E+00  0.18250000000E+03  0.18250000000E+03  0.00000000000E+00 0.  1.
         11   -1    0    0    0    0 -0.00000000000E+00 -0.00000000000E+00 -0.18250000000E+03  0.18250000000E+03  0.00000000000E+00 0.  1.
         23    2    1    2    0    0  0.91162067415E+02  0.10179608738E+01  0.10874696382E+03  0.16784111421E+03  0.89628001764E+02 0.  0.
        -11    1    1    2    0    0  0.15841389757E+02 -0.34952318595E+02  0.33464078348E+01  0.38520288810E+02  0.00000000000E+00 0.  1.
         11    1    1    2    0    0 -0.10700345717E+03  0.33934357721E+02 -0.11209337166E+03  0.15863859698E+03  0.00000000000E+00 0.  1.
        -15    1    3    3    0    0 -0.89382836362E+01 -0.44964556211E+01  0.51270304373E+02  0.52267703862E+02  0.17770000000E+01 0. -1.
         15    1    3    3    0    0  0.10010035105E+03  0.55144164948E+01  0.57476659450E+02  0.11557341035E+03  0.17770000000E+01 0.  1.
</event>
<event>
 7    1  0.2537562E-007  0.1613208E+03  0.7546771E-02  0.1086687E+00
        -11   -1    0    0    0    0  0.00000000000E+00  0.00000000000E+00  0.18250000000E+03  0.18250000000E+03  0.00000000000E+00 0.  1.
         11   -1    0    0    0    0 -0.00000000000E+00 -0.00000000000E+00 -0.18250000000E+03  0.18250000000E+03  0.00000000000E+00 0. -1.
         23    2    1    2    0    0  0.17177303457E+02 -0.22002831988E+02  0.11696951409E+03  0.15125781875E+03  0.91748984398E+02 0.  0.
        -11    1    1    2    0    0  0.32720974143E+02 -0.55090214300E+02  0.11988406819E+01  0.64086122363E+02  0.00000000000E+00 0.  1.
         11    1    1    2    0    0 -0.49898277599E+02  0.77093046289E+02 -0.11816835477E+03  0.14965605889E+03  0.00000000000E+00 0. -1.
        -15    1    3    3    0    0  0.90578233449E+00 -0.56205903058E+02  0.83541511860E+02  0.10070881745E+03  0.17770000000E+01 0.  1.
         15    1    3    3    0    0  0.16271521122E+02  0.34203071069E+02  0.33428002225E+02  0.50549001295E+02  0.17770000000E+01 0. -1.
</event>
<event>
 7    1  0.2537562E-007  0.1687237E+03  0.7546771E-02  0.1079982E+00
        -11   -1    0    0    0    0  0.00000000000E+00  0.00000000000E+00  0.18250000000E+03  0.18250000000E+03  0.00000000000E+00 0. -1.
         11   -1    0    0    0    0 -0.00000000000E+00 -0.00000000000E+00 -0.18250000000E+03  0.18250000000E+03  0.00000000000E+00 0.  1.
         23    2    1    2    0    0  0.18564143377E+02  0.19837032025E+02  0.15516179537E+03  0.18063381579E+03  0.88403944515E+02 0.  0.
        -11    1    1    2    0    0  0.14179443180E+02  0.98255491375E+01 -0.13448275200E+03  0.13558469165E+03  0.00000000000E+00 0. -1.
         11    1    1    2    0    0 -0.32743586557E+02 -0.29662581163E+02 -0.20679043367E+02  0.48781492560E+02  0.00000000000E+00 0.  1.
        -15    1    3    3    0    0 -0.27128764408E+02  0.22556259298E+02  0.26794554822E+02  0.44338026444E+02  0.17770000000E+01 0.  1.
         15    1    3    3    0    0  0.45692907785E+02 -0.27192272729E+01  0.12836724054E+03  0.13629578934E+03  0.17770000000E+01 0. -1.
</event>
<event>
 7    1  0.2537562E-007  0.1869321E+03  0.7546771E-02  0.1064981E+00
        -11   -1    0    0    0    0  0.00000000000E+00  0.00000000000E+00  0.18250000000E+03  0.18250000000E+03  0.00000000000E+00 0. -1.
         11   -1    0    0    0    0 -0.00000000000E+00 -0.00000000000E+00 -0.18250000000E+03  0.18250000000E+03  0.00000000000E+00 0. -1.
         23    2    1    2    0    0  0.72985728631E+02 -0.50741634497E+02  0.13606611338E+03  0.18693212763E+03  0.92347187696E+02 0.  0.
        -11    1    1    2    0    0 -0.72350201460E+02  0.11896057969E+02 -0.69686568159E+02  0.10115476078E+03  0.00000000000E+00 0. -1.
         11    1    1    2    0    0 -0.63552717139E+00  0.38845576529E+02 -0.66379545221E+02  0.76913111589E+02  0.00000000000E+00 0. -1.
        -15    1    3    3    0    0 -0.18269015184E+02 -0.27668219543E+02  0.26545787463E+02  0.42510279339E+02  0.17770000000E+01 0.  1.
         15    1    3    3    0    0  0.91254743815E+02 -0.23073414954E+02  0.10952032592E+03  0.14442184829E+03  0.17770000000E+01 0. -1.
</event>
<event>
 7    1  0.2537562E-007  0.1548439E+03  0.7546771E-02  0.1092885E+00
        -11   -1    0    0    0    0  0.00000000000E+00  0.00000000000E+00  0.18250000000E+03  0.18250000000E+03  0.00000000000E+00 0.  1.
         11   -1    0    0    0    0 -0.00000000000E+00 -0.00000000000E+00 -0.18250000000E+03  0.18250000000E+03  0.00000000000E+00 0. -1.
         23    2    1    2    0    0 -0.52916415312E+02 -0.10351541185E+03  0.71433331094E+02  0.16558108618E+03  0.93801853972E+02 0.  0.
        -11    1    1    2    0    0  0.31993096341E+01  0.68003003143E+02  0.35111256832E+02  0.76599245263E+02  0.00000000000E+00 0.  1.
         11    1    1    2    0    0  0.49717105678E+02  0.35512408706E+02 -0.10654458793E+03  0.12281966856E+03  0.00000000000E+00 0. -1.
        -15    1    3    3    0    0 -0.43328570164E+02 -0.10207591294E+02 -0.46491575156E+01  0.44792100945E+02  0.17770000000E+01 0. -1.
         15    1    3    3    0    0 -0.95878451483E+01 -0.93307820555E+02  0.76082488609E+02  0.12078898523E+03  0.17770000000E+01 0.  1.
</event>
<event>
 7    1  0.2537562E-007  0.1855959E+03  0.7546771E-02  0.1066017E+00
        -11   -1    0    0    0    0  0.00000000000E+00  0.00000000000E+00  0.18250000000E+03  0.18250000000E+03  0.00000000000E+00 0.  1.
         11   -1    0    0    0    0 -0.00000000000E+00 -0.00000000000E+00 -0.18250000000E+03  0.18250000000E+03  0.00000000000E+00 0. -1.
         23    2    1    2    0    0 -0.11647746596E+02  0.14861673376E+02  0.15793388878E+03  0.18351299556E+03  0.91527957365E+02 0.  0.
        -11    1    1    2    0    0  0.27986749286E+02 -0.95512083156E+01 -0.16129292226E+03  0.16398137237E+03  0.00000000000E+00 0.  1.
         11    1    1    2    0    0 -0.16339002691E+02 -0.53104650605E+01  0.33590334807E+01  0.17505632065E+02  0.00000000000E+00 0. -1.
        -15    1    3    3    0    0  0.20560991753E+02  0.14874361309E+01  0.14469564550E+03  0.14616755592E+03  0.17770000000E+01 0.  1.
         15    1    3    3    0    0 -0.32208738349E+02  0.13374237245E+02  0.13238243277E+02  0.37345439641E+02  0.17770000000E+01 0. -1.
</event>
<event>
 7    1  0.2537562E-007  0.1428607E+03  0.7546771E-02  0.1105280E+00
        -11   -1    0    0    0    0  0.00000000000E+00  0.00000000000E+00  0.18250000000E+03  0.18250000000E+03  0.00000000000E+00 0. -1.
         11   -1    0    0    0    0 -0.00000000000E+00 -0.00000000000E+00 -0.18250000000E+03  0.18250000000E+03  0.00000000000E+00 0. -1.
         23    2    1    2    0    0  0.39441650676E+02 -0.42502671210E+01 -0.90420077042E+02  0.13718909462E+03  0.95243628504E+02 0.  0.
        -11    1    1    2    0    0  0.44664922826E+02 -0.36980134838E+02  0.11688227496E+03  0.13047586714E+03  0.00000000000E+00 0. -1.
         11    1    1    2    0    0 -0.84106573502E+02  0.41230401959E+02 -0.26462197923E+02  0.97335038249E+02  0.00000000000E+00 0. -1.
        -15    1    3    3    0    0  0.57667552249E+02  0.79120503510E+01 -0.17172916425E+02  0.60714198592E+02  0.17770000000E+01 0. -1.
         15    1    3    3    0    0 -0.18225901573E+02 -0.12162317472E+02 -0.73247160617E+02  0.76474896024E+02  0.17770000000E+01 0.  1.
</event>
<event>
 7    1  0.2537562E-007  0.1643385E+03  0.7546771E-02  0.1083907E+00
        -11   -1    0    0    0    0  0.00000000000E+00  0.00000000000E+00  0.18250000000E+03  0.18250000000E+03  0.00000000000E+00 0.  1.
         11   -1    0    0    0    0 -0.00000000000E+00 -0.00000000000E+00 -0.18250000000E+03  0.18250000000E+03  0.00000000000E+00 0.  1.
         23    2    1    2    0    0 -0.67290856033E+01 -0.67407024051E+02  0.96422066960E+02  0.14924308939E+03  0.91582188494E+02 0.  0.
        -11    1    1    2    0    0  0.47252877862E+02 -0.24141501968E+02  0.24770639935E+02  0.58559637860E+02  0.00000000000E+00 0.  1.
         11    1    1    2    0    0 -0.40523792259E+02  0.91548526020E+02 -0.12119270689E+03  0.15719727275E+03  0.00000000000E+00 0.  1.
        -15    1    3    3    0    0  0.19431400076E+02 -0.21010014441E+02 -0.98817868222E+01  0.30328327608E+02  0.17770000000E+01 0. -1.
         15    1    3    3    0    0 -0.26160485679E+02 -0.46397009610E+02  0.10630385378E+03  0.11891476178E+03  0.17770000000E+01 0.  1.
</event>
<event>
 7    1  0.2537562E-007  0.2192969E+03  0.7546771E-02  0.1042435E+00
        -11   -1    0    0    0    0  0.00000000000E+00  0.00000000000E+00  0.18250000000E+03  0.18250000000E+03  0.00000000000E+00 0.  1.
         11   -1    0    0    0    0 -0.00000000000E+00 -0.00000000000E+00 -0.18250000000E+03  0.18250000000E+03  0.00000000000E+00 0. -1.
         23    2    1    2    0    0  0.11785664027E+02  0.98331493375E+01 -0.37823708201E+02  0.10185659471E+03  0.93319560017E+02 0.  0.
        -11    1    1    2    0    0 -0.34993239160E+02  0.64073230663E+02  0.12609312523E+03  0.14570306073E+03  0.00000000000E+00 0.  1.
         11    1    1    2    0    0  0.23207575132E+02 -0.73906380000E+02 -0.88269417029E+02  0.11744034456E+03  0.00000000000E+00 0. -1.
        -15    1    3    3    0    0 -0.31187686809E+02  0.30689542889E+02 -0.54589664123E+01  0.44130237871E+02  0.17770000000E+01 0.  1.
         15    1    3    3    0    0  0.42973350836E+02 -0.20856393552E+02 -0.32364741789E+02  0.57726356841E+02  0.17770000000E+01 0. -1.
</event>
<event>
 7    1  0.2537562E-007  0.1877318E+03  0.7546771E-02  0.1064365E+00
        -11   -1    0    0    0    0  0.00000000000E+00  0.00000000000E+00  0.18250000000E+03  0.18250000000E+03  0.00000000000E+00 0. -1.
         11   -1    0    0    0    0 -0.00000000000E+00 -0.00000000000E+00 -0.18250000000E+03  0.18250000000E+03  0.00000000000E+00 0.  1.
         23    2    1    2    0    0  0.24533045999E+02  0.15813528426E+02  0.16267118978E+03  0.19001423120E+03  0.93763287295E+02 0.  0.
        -11    1    1    2    0    0  0.10134068862E+02 -0.81793537972E+01 -0.59916334876E+01  0.14335300907E+02  0.00000000000E+00 0. -1.
         11    1    1    2    0    0 -0.34667114861E+02 -0.76341746288E+01 -0.15667955629E+03  0.16065046790E+03  0.00000000000E+00 0.  1.
        -15    1    3    3    0    0  0.37675805101E+02  0.34589308662E+01  0.14214884723E+02  0.40455545595E+02  0.17770000000E+01 0.  1.
         15    1    3    3    0    0 -0.13142759102E+02  0.12354597560E+02  0.14845630506E+03  0.14955868560E+03  0.17770000000E+01 0. -1.
</event>
<event>
 7    1  0.2537562E-007  0.1563389E+03  0.7546771E-02  0.1091425E+00
        -11   -1    0    0    0    0  0.00000000000E+00  0.00000000000E+00  0.18250000000E+03  0.18250000000E+03  0.00000000000E+00 0.  1.
         11   -1    0    0    0    0 -0.00000000000E+00 -0.00000000000E+00 -0.18250000000E+03  0.18250000000E+03  0.00000000000E+00 0.  1.
         23    2    1    2    0    0 -0.19654286668E+02 -0.20311413570E+02  0.15113465227E+03  0.17757527593E+03  0.88839467564E+02 0.  0.
        -11    1    1    2    0    0  0.39559188037E+02  0.56830770585E+02 -0.93289052757E+02  0.11617879844E+03  0.00000000000E+00 0.  1.
         11    1    1    2    0    0 -0.19904901368E+02 -0.36519357015E+02 -0.57845599517E+02  0.71245925629E+02  0.00000000000E+00 0.  1.
        -15    1    3    3    0    0 -0.36664710242E+02  0.73011011209E+01  0.19914764371E+02  0.42395313700E+02  0.17770000000E+01 0. -1.
         15    1    3    3    0    0  0.17010423574E+02 -0.27612514691E+02  0.13121988790E+03  0.13517996223E+03  0.17770000000E+01 0.  1.
</event>
<event>
 7    1  0.2537562E-007  0.1488107E+03  0.7546771E-02  0.1098965E+00
        -11   -1    0    0    0    0  0.00000000000E+00  0.00000000000E+00  0.18250000000E+03  0.18250000000E+03  0.00000000000E+00 0.  1.
         11   -1    0    0    0    0 -0.00000000000E+00 -0.00000000000E+00 -0.18250000000E+03  0.18250000000E+03  0.00000000000E+00 0. -1.
         23    2    1    2    0    0 -0.23455675508E+02  0.13629815279E+03  0.35670093479E+02  0.16858441121E+03  0.89559996476E+02 0.  0.
        -11    1    1    2    0    0  0.38318058796E+02 -0.60103405606E+02  0.45130735235E+02  0.84365136509E+02  0.00000000000E+00 0.  1.
         11    1    1    2    0    0 -0.14862383289E+02 -0.76194747180E+02 -0.80800828715E+02  0.11205045228E+03  0.00000000000E+00 0. -1.
        -15    1    3    3    0    0 -0.36395316889E+02  0.14382385679E+03  0.25874986949E+02  0.15060741533E+03  0.17770000000E+01 0.  1.
         15    1    3    3    0    0  0.12939641382E+02 -0.75257040084E+01  0.97951065307E+01  0.17976995880E+02  0.17770000000E+01 0. -1.
</event>
<event>
 7    1  0.2537562E-007  0.1674606E+03  0.7546771E-02  0.1081099E+00
        -11   -1    0    0    0    0  0.00000000000E+00  0.00000000000E+00  0.18250000000E+03  0.18250000000E+03  0.00000000000E+00 0.  1.
         11   -1    0    0    0    0 -0.00000000000E+00 -0.00000000000E+00 -0.18250000000E+03  0.18250000000E+03  0.00000000000E+00 0.  1.
         23    2    1    2    0    0 -0.50103758942E+02 -0.12200449109E+03  0.59817026432E+02  0.17007721735E+03  0.89177915996E+02 0.  0.
        -11    1    1    2    0    0  0.77777172386E+02  0.11933687084E+03 -0.16425722540E+02  0.14338891745E+03  0.00000000000E+00 0.  1.
         11    1    1    2    0    0 -0.27673413443E+02  0.26676202533E+01 -0.43391303892E+02  0.51533865204E+02  0.00000000000E+00 0.  1.
        -15    1    3    3    0    0  0.49428952056E+01 -0.63037246948E+02  0.63068108941E+02  0.89324525245E+02  0.17770000000E+01 0.  1.
         15    1    3    3    0    0 -0.55046654148E+02 -0.58967244146E+02 -0.32510825083E+01  0.80752692101E+02  0.17770000000E+01 0. -1.
</event>
<event>
 7    1  0.2537562E-007  0.1605514E+03  0.7546771E-02  0.1087406E+00
        -11   -1    0    0    0    0  0.00000000000E+00  0.00000000000E+00  0.18250000000E+03  0.18250000000E+03  0.00000000000E+00 0. -1.
         11   -1    0    0    0    0 -0.00000000000E+00 -0.00000000000E+00 -0.18250000000E+03  0.18250000000E+03  0.00000000000E+00 0. -1.
         23    2    1    2    0    0 -0.27617550718E+02 -0.15403451964E+02  0.14712145005E+03  0.17759462248E+03  0.94314015029E+02 0.  0.
        -11    1    1    2    0    0 -0.20658150065E+01 -0.35345890878E+02 -0.11517369522E+03  0.12049306895E+03  0.00000000000E+00 0. -1.
         11    1    1    2    0    0  0.29683365724E+02  0.50749342842E+02 -0.31947754824E+02  0.66912308568E+02  0.00000000000E+00 0. -1.
        -15    1    3    3    0    0 -0.35444871096E+02 -0.44295632093E+02  0.13268248667E+03  0.14431299979E+03  0.17770000000E+01 0. -1.
         15    1    3    3    0    0  0.78273203782E+01  0.28892180129E+02  0.14438963379E+02  0.33281622698E+02  0.17770000000E+01 0.  1.
</event>
<event>
 7    1  0.2537562E-007  0.1530435E+03  0.7546771E-02  0.1094667E+00
        -11   -1    0    0    0    0  0.00000000000E+00  0.00000000000E+00  0.18250000000E+03  0.18250000000E+03  0.00000000000E+00 0.  1.
         11   -1    0    0    0    0 -0.00000000000E+00 -0.00000000000E+00 -0.18250000000E+03  0.18250000000E+03  0.00000000000E+00 0. -1.
         23    2    1    2    0    0  0.39308454811E+02  0.68946104708E+02  0.66303816120E+02  0.13705870374E+03  0.89945384900E+02 0.  0.
        -11    1    1    2    0    0  0.59793383132E+02 -0.29226499046E+02  0.39695512488E+02  0.77493035974E+02  0.00000000000E+00 0.  1.
         11    1    1    2    0    0 -0.99101837943E+02 -0.39719605662E+02 -0.10599932861E+03  0.15044826029E+03  0.00000000000E+00 0. -1.
        -15    1    3    3    0    0  0.34771528127E+02  0.50289427823E+02  0.88548434818E+02  0.10762002024E+03  0.17770000000E+01 0.  1.
         15    1    3    3    0    0  0.45369266833E+01  0.18656676885E+02 -0.22244618698E+02  0.29438683498E+02  0.17770000000E+01 0. -1.
</event>
<event>
 7    1  0.2537562E-007  0.1772452E+03  0.7546771E-02  0.1072716E+00
        -11   -1    0    0    0    0  0.00000000000E+00  0.00000000000E+00  0.18250000000E+03  0.18250000000E+03  0.00000000000E+00 0. -1.
         11   -1    0    0    0    0 -0.00000000000E+00 -0.00000000000E+00 -0.18250000000E+03  0.18250000000E+03  0.00000000000E+00 0. -1.
         23    2    1    2    0    0 -0.41279394677E+02 -0.64391761073E+02  0.10603054471E+03  0.16596206495E+03  0.10222838781E+03 0.  0.
        -11    1    1    2    0    0 -0.34675712632E+02  0.53878021952E+01  0.20084261971E+02  0.40432796564E+02  0.00000000000E+00 0. -1.
         11    1    1    2    0    0  0.75955107310E+02  0.59003958878E+02 -0.12611480668E+03  0.15860513848E+03  0.00000000000E+00 0. -1.
        -15    1    3    3    0    0 -0.53448481009E+02 -0.20560687563E+02  0.10593741893E+03  0.12043826823E+03  0.17770000000E+01 0. -1.
         15    1    3    3    0    0  0.12169086332E+02 -0.43831073510E+02  0.93125778188E-01  0.45523796729E+02  0.17770000000E+01 0.  1.
</event>
<event>
 7    1  0.2537562E-007  0.1280068E+03  0.7546771E-02  0.1122646E+00
        -11   -1    0    0    0    0  0.00000000000E+00  0.00000000000E+00  0.18250000000E+03  0.18250000000E+03  0.00000000000E+00 0. -1.
         11   -1    0    0    0    0 -0.00000000000E+00 -0.00000000000E+00 -0.18250000000E+03  0.18250000000E+03  0.00000000000E+00 0. -1.
         23    2    1    2    0    0 -0.20491061716E+02 -0.36323928079E+01  0.10471451345E+03  0.12441270125E+03  0.63877327876E+02 0.  0.
        -11    1    1    2    0    0  0.56234932346E+02  0.87759328189E+02 -0.36154118967E+01  0.10429352091E+03  0.00000000000E+00 0. -1.
         11    1    1    2    0    0 -0.35743870629E+02 -0.84126935381E+02 -0.10109910155E+03  0.13629377785E+03  0.00000000000E+00 0. -1.
        -15    1    3    3    0    0  0.85925894121E+01 -0.16975705142E+02  0.51118507955E+01  0.19781200808E+02  0.17770000000E+01 0.  1.
         15    1    3    3    0    0 -0.29083651128E+02  0.13343312334E+02  0.99602662656E+02  0.10463150044E+03  0.17770000000E+01 0. -1.
</event>
<event>
 7    1  0.2537562E-007  0.1630904E+03  0.7546771E-02  0.1085049E+00
        -11   -1    0    0    0    0  0.00000000000E+00  0.00000000000E+00  0.18250000000E+03  0.18250000000E+03  0.00000000000E+00 0.  1.
         11   -1    0    0    0    0 -0.00000000000E+00 -0.00000000000E+00 -0.18250000000E+03  0.18250000000E+03  0.00000000000E+00 0. -1.
         23    2    1    2    0    0  0.92457111236E+02 -0.98357535198E+02 -0.75319199048E+02  0.17912775685E+03  0.90505521278E+02 0.  0.
        -11    1    1    2    0    0 -0.79587531369E+02  0.40945539484E+02  0.88182475288E+02  0.12564577709E+03  0.00000000000E+00 0.  1.
         11    1    1    2    0    0 -0.12869579867E+02  0.57411995714E+02 -0.12863276240E+02  0.60226466055E+02  0.00000000000E+00 0. -1.
        -15    1    3    3    0    0  0.73390394277E+02 -0.71963135753E+02 -0.95883247126E+02  0.14057594989E+03  0.17770000000E+01 0. -1.
         15    1    3    3    0    0  0.19066716959E+02 -0.26394399445E+02  0.20564048078E+02  0.38551806962E+02  0.17770000000E+01 0.  1.
</event>
<event>
 7    1  0.2537562E-007  0.1605336E+03  0.7546771E-02  0.1087423E+00
        -11   -1    0    0    0    0  0.00000000000E+00  0.00000000000E+00  0.18250000000E+03  0.18250000000E+03  0.00000000000E+00 0.  1.
         11   -1    0    0    0    0 -0.00000000000E+00 -0.00000000000E+00 -0.18250000000E+03  0.18250000000E+03  0.00000000000E+00 0.  1.
         23    2    1    2    0    0 -0.45048399712E+01 -0.29293338153E+02  0.11318222959E+03  0.14665792559E+03  0.88430406544E+02 0.  0.
        -11    1    1    2    0    0  0.43967044982E+02 -0.42371609162E+02  0.18071357600E+02  0.63679103896E+02  0.00000000000E+00 0.  1.
         11    1    1    2    0    0 -0.39462205011E+02  0.71664947315E+02 -0.13125358719E+03  0.15466297051E+03  0.00000000000E+00 0.  1.
        -15    1    3    3    0    0 -0.86123464692E+01  0.25336116455E+02  0.78938789839E+01  0.27956436882E+02  0.17770000000E+01 0. -1.
         15    1    3    3    0    0  0.41075064980E+01 -0.54629454608E+02  0.10528835060E+03  0.11870148871E+03  0.17770000000E+01 0.  1.
</event>
<event>
 7    1  0.2537562E-007  0.1754758E+03  0.7546771E-02  0.1074188E+00
        -11   -1    0    0    0    0  0.00000000000E+00  0.00000000000E+00  0.18250000000E+03  0.18250000000E+03  0.00000000000E+00 0.  1.
         11   -1    0    0    0    0 -0.00000000000E+00 -0.00000000000E+00 -0.18250000000E+03  0.18250000000E+03  0.00000000000E+00 0. -1.
         23    2    1    2    0    0 -0.35290043423E+02  0.11146067764E+02  0.12526043184E+03  0.15999366845E+03  0.92402251962E+02 0.  0.
        -11    1    1    2    0    0 -0.53612813101E+01  0.15555557045E+02  0.34383806815E+02  0.38117776212E+02  0.00000000000E+00 0.  1.
         11    1    1    2    0    0  0.40651324733E+02 -0.26701624808E+02 -0.15964423865E+03  0.16688855534E+03  0.00000000000E+00 0. -1.
        -15    1    3    3    0    0 -0.66364621002E+02  0.24432543493E+01  0.93348190600E+02  0.11457432012E+03  0.17770000000E+01 0.  1.
         15    1    3    3    0    0  0.31074577579E+02  0.87028134145E+01  0.31912241236E+02  0.45419348330E+02  0.17770000000E+01 0. -1.
</event>
<event>
 7    1  0.2537562E-007  0.1511365E+03  0.7546771E-02  0.1096584E+00
        -11   -1    0    0    0    0  0.00000000000E+00  0.00000000000E+00  0.18250000000E+03  0.18250000000E+03  0.00000000000E+00 0.  1.
         11   -1    0    0    0    0 -0.00000000000E+00 -0.00000000000E+00 -0.18250000000E+03  0.18250000000E+03  0.00000000000E+00 0. -1.
         23    2    1    2    0    0  0.45703559016E+02 -0.21154694548E+02  0.13915320895E+03  0.17369930142E+03  0.90947761635E+02 0.  0.
        -11    1    1    2    0    0  0.15876914098E+02  0.57275026423E+02 -0.55423886549E+02  0.81266919797E+02  0.00000000000E+00 0.  1.
         11    1    1    2    0    0 -0.61580473114E+02 -0.36120331874E+02 -0.83729322398E+02  0.11003377878E+03  0.00000000000E+00 0. -1.
        -15    1    3    3    0    0  0.59154373865E+02 -0.12249335122E+02  0.38301944852E+02  0.71550561610E+02  0.17770000000E+01 0. -1.
         15    1    3    3    0    0 -0.13450814850E+02 -0.89053594263E+01  0.10085126410E+03  0.10214873981E+03  0.17770000000E+01 0.  1.
</event>
<event>
 7    1  0.2537562E-007  0.1228980E+03  0.7546771E-02  0.1129231E+00
        -11   -1    0    0    0    0  0.00000000000E+00  0.00000000000E+00  0.18250000000E+03  0.18250000000E+03  0.00000000000E+00 0.  1.
         11   -1    0    0    0    0 -0.00000000000E+00 -0.00000000000E+00 -0.18250000000E+03  0.18250000000E+03  0.00000000000E+00 0. -1.
         23    2    1    2    0    0  0.14428678661E+02  0.38822851285E+02  0.46491712635E+02  0.11144032704E+03  0.92423301164E+02 0.  0.
        -11    1    1    2    0    0  0.87242646520E+01 -0.11773205493E+03  0.48752865307E+02  0.12772545332E+03  0.00000000000E+00 0.  1.
         11    1    1    2    0    0 -0.23152943313E+02  0.78909203642E+02 -0.95244577942E+02  0.12583421963E+03  0.00000000000E+00 0. -1.
        -15    1    3    3    0    0  0.34258169887E+02  0.53897937428E+02  0.64017205644E+01  0.64208641304E+02  0.17770000000E+01 0.  1.
         15    1    3    3    0    0 -0.19829491226E+02 -0.15075086143E+02  0.40089992070E+02  0.47231685739E+02  0.17770000000E+01 0. -1.
</event>
<event>
 7    1  0.2537562E-007  0.1303452E+03  0.7546771E-02  0.1119744E+00
        -11   -1    0    0    0    0  0.00000000000E+00  0.00000000000E+00  0.18250000000E+03  0.18250000000E+03  0.00000000000E+00 0.  1.
         11   -1    0    0    0    0 -0.00000000000E+00 -0.00000000000E+00 -0.18250000000E+03  0.18250000000E+03  0.00000000000E+00 0. -1.
         23    2    1    2    0    0  0.29554654319E+02 -0.20008797815E+02 -0.98661737770E+00  0.10187583051E+03  0.95414264375E+02 0.  0.
        -11    1    1    2    0    0  0.57365483009E+01  0.60008773741E+02  0.11912045815E+03  0.13350522260E+03  0.00000000000E+00 0.  1.
         11    1    1    2    0    0 -0.35291202620E+02 -0.39999975926E+02 -0.11813384077E+03  0.12961894689E+03  0.00000000000E+00 0. -1.
        -15    1    3    3    0    0 -0.29168563691E+02 -0.29957736693E+02 -0.50353015452E+01  0.42151904895E+02  0.17770000000E+01 0. -1.
         15    1    3    3    0    0  0.58723218010E+02  0.99489388784E+01  0.40486841675E+01  0.59723925614E+02  0.17770000000E+01 0.  1.
</event>
<event>
 7    1  0.2537562E-007  0.1237007E+03  0.7546771E-02  0.1128173E+00
        -11   -1    0    0    0    0  0.00000000000E+00  0.00000000000E+00  0.18250000000E+03  0.18250000000E+03  0.00000000000E+00 0.  1.
         11   -1    0    0    0    0 -0.00000000000E+00 -0.00000000000E+00 -0.18250000000E+03  0.18250000000E+03  0.00000000000E+00 0.  1.
         23    2    1    2    0    0 -0.22881403245E+02 -0.13660857156E+02  0.55491095191E+02  0.11005504151E+03  0.91228684539E+02 0.  0.
        -11    1    1    2    0    0 -0.13297108688E+02  0.12799247915E+03 -0.23220435739E+02  0.13075961324E+03  0.00000000000E+00 0.  1.
         11    1    1    2    0    0  0.36178511933E+02 -0.11433162200E+03 -0.32270659452E+02  0.12418534525E+03  0.00000000000E+00 0.  1.
        -15    1    3    3    0    0  0.15900655086E+02  0.31585453072E+02  0.19714165910E+02  0.40525026150E+02  0.17770000000E+01 0.  1.
         15    1    3    3    0    0 -0.38782058331E+02 -0.45246310228E+02  0.35776929281E+02  0.69530015356E+02  0.17770000000E+01 0. -1.
</event>
<event>
 7    1  0.2537562E-007  0.1765921E+03  0.7546771E-02  0.1073257E+00
        -11   -1    0    0    0    0  0.00000000000E+00  0.00000000000E+00  0.18250000000E+03  0.18250000000E+03  0.00000000000E+00 0. -1.
         11   -1    0    0    0    0 -0.00000000000E+00 -0.00000000000E+00 -0.18250000000E+03  0.18250000000E+03  0.00000000000E+00 0. -1.
         23    2    1    2    0    0 -0.26593584734E+02  0.50970595828E+02  0.12715167880E+03  0.16760322926E+03  0.92833575015E+02 0.  0.
        -11    1    1    2    0    0  0.61693422656E+01  0.34791831824E+02  0.78143013702E+01  0.36188335850E+02  0.00000000000E+00 0. -1.
         11    1    1    2    0    0  0.20424242469E+02 -0.85762427653E+02 -0.13496598017E+03  0.16120843489E+03  0.00000000000E+00 0. -1.
        -15    1    3    3    0    0  0.15625453610E+02  0.26006973263E+02  0.11227938717E+03  0.11631997237E+03  0.17770000000E+01 0. -1.
         15    1    3    3    0    0 -0.42219038345E+02  0.24963622566E+02  0.14872291622E+02  0.51283256892E+02  0.17770000000E+01 0.  1.
</event>
<event>
 7    1  0.2537562E-007  0.1511199E+03  0.7546771E-02  0.1096601E+00
        -11   -1    0    0    0    0  0.00000000000E+00  0.00000000000E+00  0.18250000000E+03  0.18250000000E+03  0.00000000000E+00 0.  1.
         11   -1    0    0    0    0 -0.00000000000E+00 -0.00000000000E+00 -0.18250000000E+03  0.18250000000E+03  0.00000000000E+00 0. -1.
         23    2    1    2    0    0  0.14084833325E+02  0.44202379613E+02 -0.69758562111E+02  0.12173000685E+03  0.88315936766E+02 0.  0.
        -11    1    1    2    0    0 -0.23270501357E+02 -0.80936021899E+02  0.14005493036E+03  0.16342441492E+03  0.00000000000E+00 0.  1.
         11    1    1    2    0    0  0.91856680320E+01  0.36733642286E+02 -0.70296368251E+02  0.79845578225E+02  0.00000000000E+00 0. -1.
        -15    1    3    3    0    0 -0.16783780568E+02  0.45424602372E+01 -0.69267978936E+02  0.71439064034E+02  0.17770000000E+01 0. -1.
         15    1    3    3    0    0  0.30868613894E+02  0.39659919375E+02 -0.49058317531E+00  0.50290942817E+02  0.17770000000E+01 0.  1.
</event>
<event>
 7    1  0.2537562E-007  0.1811443E+03  0.7546771E-02  0.1069539E+00
        -11   -1    0    0    0    0  0.00000000000E+00  0.00000000000E+00  0.18250000000E+03  0.18250000000E+03  0.00000000000E+00 0.  1.
         11   -1    0    0    0    0 -0.00000000000E+00 -0.00000000000E+00 -0.18250000000E+03  0.18250000000E+03  0.00000000000E+00 0. -1.
         23    2    1    2    0    0 -0.46182560099E+02 -0.27504008521E+02  0.13246515220E+03  0.17099582657E+03  0.93825672480E+02 0.  0.
        -11    1    1    2    0    0 -0.16653637715E+02  0.89530751723E+01  0.20324698020E+02  0.27759584899E+02  0.00000000000E+00 0.  1.
         11    1    1    2    0    0  0.62836197813E+02  0.18550933349E+02 -0.15278985022E+03  0.16624458853E+03  0.00000000000E+00 0. -1.
        -15    1    3    3    0    0 -0.33988722166E+02 -0.58841822195E+02  0.11363567864E+03  0.13241532563E+03  0.17770000000E+01 0.  1.
         15    1    3    3    0    0 -0.12193837932E+02  0.31337813674E+02  0.18829473566E+02  0.38580500945E+02  0.17770000000E+01 0. -1.
</event>
<event>
 7    1  0.2537562E-007  0.1904111E+03  0.7546771E-02  0.1062326E+00
        -11   -1    0    0    0    0  0.00000000000E+00  0.00000000000E+00  0.18250000000E+03  0.18250000000E+03  0.00000000000E+00 0.  1.
         11   -1    0    0    0    0 -0.00000000000E+00 -0.00000000000E+00 -0.18250000000E+03  0.18250000000E+03  0.00000000000E+00 0. -1.
         23    2    1    2    0    0 -0.77113564286E+01  0.56343746193E+02  0.15800199339E+03  0.19041114171E+03  0.89764637914E+02 0.  0.
        -11    1    1    2    0    0 -0.11214327300E+01 -0.45891623231E+01 -0.82450259326E+02  0.82585490766E+02  0.00000000000E+00 0. -1.
         11    1    1    2    0    0  0.88327891586E+01 -0.51754583870E+02 -0.75551734063E+02  0.92003367524E+02  0.00000000000E+00 0.  1.
        -15    1    3    3    0    0  0.20875940528E+02  0.42515006131E+02  0.15042438350E+03  0.15771488046E+03  0.17770000000E+01 0.  1.
         15    1    3    3    0    0 -0.28587296957E+02  0.13828740061E+02  0.75776098900E+01  0.32696261248E+02  0.17770000000E+01 0. -1.
</event>
<event>
 7    1  0.2537562E-007  0.1736188E+03  0.7546771E-02  0.1075753E+00
        -11   -1    0    0    0    0  0.00000000000E+00  0.00000000000E+00  0.18250000000E+03  0.18250000000E+03  0.00000000000E+00 0.  1.
         11   -1    0    0    0    0 -0.00000000000E+00 -0.00000000000E+00 -0.18250000000E+03  0.18250000000E+03  0.00000000000E+00 0. -1.
         23    2    1    2    0    0 -0.18190841803E+02  0.17413638879E+02  0.15791182020E+03  0.18292878511E+03  0.88840620877E+02 0.  0.
        -11    1    1    2    0    0  0.64643945748E+01 -0.35261809208E+02 -0.17225252856E+02  0.39773017509E+02  0.00000000000E+00 0.  1.
         11    1    1    2    0    0  0.11726447229E+02  0.17848170330E+02 -0.14068656734E+03  0.14229819738E+03  0.00000000000E+00 0. -1.
        -15    1    3    3    0    0 -0.19349655429E+02  0.13479300318E+02  0.16917040372E+03  0.17081535038E+03  0.17770000000E+01 0.  1.
         15    1    3    3    0    0  0.11588136258E+01  0.39343385603E+01 -0.11258583522E+02  0.12113434725E+02  0.17770000000E+01 0. -1.
</event>
<event>
 7    1  0.2537562E-007  0.1729343E+03  0.7546771E-02  0.1076335E+00
        -11   -1    0    0    0    0  0.00000000000E+00  0.00000000000E+00  0.18250000000E+03  0.18250000000E+03  0.00000000000E+00 0. -1.
         11   -1    0    0    0    0 -0.00000000000E+00 -0.00000000000E+00 -0.18250000000E+03  0.18250000000E+03  0.00000000000E+00 0. -1.
         23    2    1    2    0    0  0.17169356497E+02  0.49424327138E+01  0.15393391923E+03  0.17898970122E+03  0.89568114917E+02 0.  0.
        -11    1    1    2    0    0 -0.20668546734E+02 -0.33764737669E+02 -0.12335317224E+02  0.41465725424E+02  0.00000000000E+00 0. -1.
         11    1    1    2    0    0  0.34991902361E+01  0.28822304955E+02 -0.14159860201E+03  0.14454457335E+03  0.00000000000E+00 0. -1.
        -15    1    3    3    0    0 -0.34611367033E+02  0.14379047160E+02  0.50419787668E+02  0.62849156260E+02  0.17770000000E+01 0.  1.
         15    1    3    3    0    0  0.51780723531E+02 -0.94366144463E+01  0.10351413156E+03  0.11614054496E+03  0.17770000000E+01 0. -1.
</event>
<event>
 7    1  0.2537562E-007  0.1474338E+03  0.7546771E-02  0.1100397E+00
        -11   -1    0    0    0    0  0.00000000000E+00  0.00000000000E+00  0.18250000000E+03  0.18250000000E+03  0.00000000000E+00 0.  1.
         11   -1    0    0    0    0 -0.00000000000E+00 -0.00000000000E+00 -0.18250000000E+03  0.18250000000E+03  0.00000000000E+00 0. -1.
         23    2    1    2    0    0 -0.21542904161E+02  0.69068899228E+02  0.97231489201E+02  0.15341442206E+03  0.94060687031E+02 0.  0.
        -11    1    1    2    0    0  0.76848550367E+02  0.23211154927E+02 -0.38906594447E+02  0.89208634661E+02  0.00000000000E+00 0.  1.
         11    1    1    2    0    0 -0.55305646206E+02 -0.92280054155E+02 -0.58324894754E+02  0.12237694327E+03  0.00000000000E+00 0. -1.
        -15    1    3    3    0    0  0.95724926804E+01  0.49865603798E+02  0.13971834452E+01  0.50826380048E+02  0.17770000000E+01 0. -1.
         15    1    3    3    0    0 -0.31115396841E+02  0.19203295430E+02  0.95834305756E+02  0.10258804202E+03  0.17770000000E+01 0.  1.
</event>
<event>
 7    1  0.2537562E-007  0.1211996E+03  0.7546771E-02  0.1131499E+00
        -11   -1    0    0    0    0  0.00000000000E+00  0.00000000000E+00  0.18250000000E+03  0.18250000000E+03  0.00000000000E+00 0.  1.
         11   -1    0    0    0    0 -0.00000000000E+00 -0.00000000000E+00 -0.18250000000E+03  0.18250000000E+03  0.00000000000E+00 0. -1.
         23    2    1    2    0    0 -0.31927946477E+02 -0.55585505024E+02  0.19462019247E+02  0.11351386580E+03  0.91637794608E+02 0.  0.
        -11    1    1    2    0    0  0.79013704591E+00  0.10299880068E+03  0.84386435012E+02  0.13315572715E+03  0.00000000000E+00 0.  1.
         11    1    1    2    0    0  0.31137809431E+02 -0.47413295656E+02 -0.10384845426E+03  0.11833040705E+03  0.00000000000E+00 0. -1.
        -15    1    3    3    0    0  0.30155561932E+02 -0.28253715151E+01  0.52284981101E+01  0.30786938157E+02  0.17770000000E+01 0. -1.
         15    1    3    3    0    0 -0.62083508408E+02 -0.52760133509E+02  0.14233521137E+02  0.82726927643E+02  0.17770000000E+01 0.  1.
</event>
<event>
 7    1  0.2537562E-007  0.2063046E+03  0.7546771E-02  0.1050942E+00
        -11   -1    0    0    0    0  0.00000000000E+00  0.00000000000E+00  0.18250000000E+03  0.18250000000E+03  0.00000000000E+00 0.  1.
         11   -1    0    0    0    0 -0.00000000000E+00 -0.00000000000E+00 -0.18250000000E+03  0.18250000000E+03  0.00000000000E+00 0.  1.
         23    2    1    2    0    0 -0.18831098197E+02 -0.26776647031E+02  0.56882016002E+02  0.11089422973E+03  0.89388854777E+02 0.  0.
        -11    1    1    2    0    0  0.53999592712E+01 -0.41149347181E+02  0.85911115237E+02  0.95410419005E+02  0.00000000000E+00 0.  1.
         11    1    1    2    0    0  0.13431138926E+02  0.67925994212E+02 -0.14279313124E+03  0.15869535126E+03  0.00000000000E+00 0.  1.
        -15    1    3    3    0    0 -0.54260676808E+01  0.11631838254E+02 -0.20037203364E+02  0.23861875854E+02  0.17770000000E+01 0. -1.
         15    1    3    3    0    0 -0.13405030517E+02 -0.38408485285E+02  0.76919219366E+02  0.87032353880E+02  0.17770000000E+01 0.  1.
</event>
<event>
 7    1  0.2537562E-007  0.1477533E+03  0.7546771E-02  0.1100063E+00
        -11   -1    0    0    0    0  0.00000000000E+00  0.00000000000E+00  0.18250000000E+03  0.18250000000E+03  0.00000000000E+00 0.  1.
         11   -1    0    0    0    0 -0.00000000000E+00 -0.00000000000E+00 -0.18250000000E+03  0.18250000000E+03  0.00000000000E+00 0. -1.
         23    2    1    2    0    0  0.55906161854E+02  0.97139710800E+02  0.10339911652E+02  0.14488992455E+03  0.91238994487E+02 0.  0.
        -11    1    1    2    0    0  0.49589166499E+02 -0.47324720323E+02  0.53651693302E+02  0.87047221563E+02  0.00000000000E+00 0.  1.
         11    1    1    2    0    0 -0.10549532835E+03 -0.49814990477E+02 -0.63991604954E+02  0.13306285389E+03  0.00000000000E+00 0. -1.
        -15    1    3    3    0    0  0.37763920965E+01  0.35453222269E+02  0.44612938034E+02  0.57137238956E+02  0.17770000000E+01 0.  1.
         15    1    3    3    0    0  0.52129769757E+02  0.61686488530E+02 -0.34273026381E+02  0.87752685591E+02  0.17770000000E+01 0. -1.
</event>
<event>
 7    1  0.2537562E-007  0.1639086E+03  0.7546771E-02  0.1084299E+00
        -11   -1    0    0    0    0  0.00000000000E+00  0.00000000000E+00  0.18250000000E+03  0.18250000000E+03  0.00000000000E+00 0. -1.
         11   -1    0    0    0    0 -0.00000000000E+00 -0.00000000000E+00 -0.18250000000E+03  0.18250000000E+03  0.00000000000E+00 0. -1.
         23    2    1    2    0    0  0.54448806816E+02 -0.28340026989E+02 -0.11140178927E+03  0.15658070557E+03  0.91319926693E+02 0.  0.
        -11    1    1    2    0    0 -0.76046450275E+02 -0.24812898082E+02  0.12597312924E+03  0.14922456835E+03  0.00000000000E+00 0. -1.
         11    1    1    2    0    0  0.21597643459E+02  0.53152925071E+02 -0.14571339965E+02  0.59194726074E+02  0.00000000000E+00 0. -1.
        -15    1    3    3    0    0  0.45752138349E+02 -0.10879312278E+02 -0.38043479912E+01  0.47214917047E+02  0.17770000000E+01 0.  1.
         15    1    3    3    0    0  0.86966684669E+01 -0.17460714711E+02 -0.10759744128E+03  0.10936578853E+03  0.17770000000E+01 0. -1.
</event>
<event>
 7    1  0.2537562E-007  0.1494269E+03  0.7546771E-02  0.1098329E+00
        -11   -1    0    0    0    0  0.00000000000E+00  0.00000000000E+00  0.18250000000E+03  0.18250000000E+03  0.00000000000E+00 0. -1.
         11   -1    0    0    0    0 -0.00000000000E+00 -0.00000000000E+00 -0.18250000000E+03  0.18250000000E+03  0.00000000000E+00 0.  1.
         23    2    1    2    0    0  0.65194107155E+02 -0.18333415181E+02  0.36489039653E+02  0.12212611922E+03  0.94852270715E+02 0.  0.
        -11    1    1    2    0    0  0.56068710587E+02  0.20587061650E+02  0.62404566736E+02  0.86382043063E+02  0.00000000000E+00 0. -1.
         11    1    1    2    0    0 -0.12126281774E+03 -0.22536464695E+01 -0.98893606389E+02  0.15649183772E+03  0.00000000000E+00 0.  1.
        -15    1    3    3    0    0 -0.14774893445E+00  0.14021669489E+02 -0.23678316626E+02  0.27576247973E+02  0.17770000000E+01 0.  1.
         15    1    3    3    0    0  0.65341856089E+02 -0.32355084670E+02  0.60167356280E+02  0.94549871242E+02  0.17770000000E+01 0. -1.
</event>
<event>
 7    1  0.2537562E-007  0.1361978E+03  0.7546771E-02  0.1112767E+00
        -11   -1    0    0    0    0  0.00000000000E+00  0.00000000000E+00  0.18250000000E+03  0.18250000000E+03  0.00000000000E+00 0.  1.
         11   -1    0    0    0    0 -0.00000000000E+00 -0.00000000000E+00 -0.18250000000E+03  0.18250000000E+03  0.00000000000E+00 0.  1.
         23    2    1    2    0    0  0.22710810518E+02 -0.31880566302E+02  0.96413089373E+02  0.13886739567E+03  0.91959329898E+02 0.  0.
        -11    1    1    2    0    0 -0.10350831157E+03  0.20269726238E+02 -0.79654517338E+01  0.10577466987E+03  0.00000000000E+00 0.  1.
         11    1    1    2    0    0  0.80797501051E+02  0.11610840064E+02 -0.88447637639E+02  0.12035793446E+03  0.00000000000E+00 0.  1.
        -15    1    3    3    0    0  0.56881095473E+02 -0.29047164809E+02  0.49979702454E+02  0.81119203596E+02  0.17770000000E+01 0.  1.
         15    1    3    3    0    0 -0.34170284955E+02 -0.28334014939E+01  0.46433386919E+02  0.57748192073E+02  0.17770000000E+01 0. -1.
</event>
<event>
 7    1  0.2537562E-007  0.1469250E+03  0.7546771E-02  0.1100931E+00
        -11   -1    0    0    0    0  0.00000000000E+00  0.00000000000E+00  0.18250000000E+03  0.18250000000E+03  0.00000000000E+00 0.  1.
         11   -1    0    0    0    0 -0.00000000000E+00 -0.00000000000E+00 -0.18250000000E+03  0.18250000000E+03  0.00000000000E+00 0.  1.
         23    2    1    2    0    0  0.25413927668E+01  0.94529394022E+02  0.16812509158E+02  0.13574252218E+03  0.95922400152E+02 0.  0.
        -11    1    1    2    0    0 -0.34727209286E+02 -0.59048498613E+01  0.84082531071E+02  0.91163141389E+02  0.00000000000E+00 0.  1.
         11    1    1    2    0    0  0.32185816519E+02 -0.88624544161E+02 -0.10089504023E+03  0.13809433644E+03  0.00000000000E+00 0.  1.
        -15    1    3    3    0    0 -0.47776929240E+00  0.34517402867E+02 -0.40113347004E+02  0.52952032077E+02  0.17770000000E+01 0. -1.
         15    1    3    3    0    0  0.30191620592E+01  0.60011991155E+02  0.56925856162E+02  0.82790490098E+02  0.17770000000E+01 0.  1.
</event>
<event>
 7    1  0.2537562E-007  0.1427082E+03  0.7546771E-02  0.1105447E+00
        -11   -1    0    0    0    0  0.00000000000E+00  0.00000000000E+00  0.18250000000E+03  0.18250000000E+03  0.00000000000E+00 0.  1.
         11   -1    0    0    0    0 -0.00000000000E+00 -0.00000000000E+00 -0.18250000000E+03  0.18250000000E+03  0.00000000000E+00 0. -1.
         23    2    1    2    0    0 -0.45401579544E+02 -0.45527146359E+02  0.58165613681E+02  0.12572522181E+03  0.91047066416E+02 0.  0.
        -11    1    1    2    0    0  0.11792154630E+03  0.82473606807E+02 -0.89857380771E+01  0.14418089468E+03  0.00000000000E+00 0. -1.
         11    1    1    2    0    0 -0.72519966753E+02 -0.36946460448E+02 -0.49179875604E+02  0.95093883515E+02  0.00000000000E+00 0.  1.
        -15    1    3    3    0    0 -0.37687946264E+02  0.12834051646E+02 -0.40456215346E+01  0.40057695364E+02  0.17770000000E+01 0. -1.
         15    1    3    3    0    0 -0.77136332805E+01 -0.58361198005E+02  0.62211235216E+02  0.85667526444E+02  0.17770000000E+01 0.  1.
</event>
<event>
 7    1  0.2537562E-007  0.1659723E+03  0.7546771E-02  0.1082429E+00
        -11   -1    0    0    0    0  0.00000000000E+00  0.00000000000E+00  0.18250000000E+03  0.18250000000E+03  0.00000000000E+00 0.  1.
         11   -1    0    0    0    0 -0.00000000000E+00 -0.00000000000E+00 -0.18250000000E+03  0.18250000000E+03  0.00000000000E+00 0. -1.
         23    2    1    2    0    0  0.86993496386E+02 -0.12999920288E+02 -0.87780867980E+02  0.15405737461E+03  0.91056727089E+02 0.  0.
        -11    1    1    2    0    0 -0.12873574688E+03 -0.23096204540E+02  0.84390907155E+02  0.15565395080E+03  0.00000000000E+00 0.  1.
         11    1    1    2    0    0  0.41742250491E+02  0.36096124828E+02  0.33899608243E+01  0.55288674591E+02  0.00000000000E+00 0. -1.
        -15    1    3    3    0    0  0.54160388061E+01  0.31775009681E+02 -0.32478438880E+02  0.45792919077E+02  0.17770000000E+01 0.  1.
         15    1    3    3    0    0  0.81577457580E+02 -0.44774929969E+02 -0.55302429100E+02  0.10826445554E+03  0.17770000000E+01 0. -1.
</event>
<event>
 7    1  0.2537562E-007  0.1824351E+03  0.7546771E-02  0.1068507E+00
        -11   -1    0    0    0    0  0.00000000000E+00  0.00000000000E+00  0.18250000000E+03  0.18250000000E+03  0.00000000000E+00 0.  1.
         11   -1    0    0    0    0 -0.00000000000E+00 -0.00000000000E+00 -0.18250000000E+03  0.18250000000E+03  0.00000000000E+00 0. -1.
         23    2    1    2    0    0  0.29226747965E+01 -0.48565016346E+02  0.15178583324E+03  0.18459279867E+03  0.93104561155E+02 0.  0.
        -11    1    1    2    0    0  0.15323444150E+02  0.62086573871E+02 -0.14188881825E+03  0.15563414581E+03  0.00000000000E+00 0. -1.
         11    1    1    2    0    0 -0.18246118946E+02 -0.13521557525E+02 -0.98970149856E+01  0.24773055527E+02  0.00000000000E+00 0.  1.
        -15    1    3    3    0    0 -0.44408882391E+02 -0.15227899723E+02  0.63115477783E+02  0.78681376640E+02  0.17770000000E+01 0. -1.
         15    1    3    3    0    0  0.47331557188E+02 -0.33337116623E+02  0.88670355455E+02  0.10591142203E+03  0.17770000000E+01 0.  1.
</event>
<event>
 7    1  0.2537562E-007  0.1611320E+03  0.7546771E-02  0.1086863E+00
        -11   -1    0    0    0    0  0.00000000000E+00  0.00000000000E+00  0.18250000000E+03  0.18250000000E+03  0.00000000000E+00 0. -1.
         11   -1    0    0    0    0 -0.00000000000E+00 -0.00000000000E+00 -0.18250000000E+03  0.18250000000E+03  0.00000000000E+00 0.  1.
         23    2    1    2    0    0  0.62464622820E+02  0.46196501180E+02 -0.84487123291E+02  0.14790780047E+03  0.93288250127E+02 0.  0.
        -11    1    1    2    0    0 -0.24962948747E+02 -0.71453518849E+02  0.13158748067E+03  0.15180256663E+03  0.00000000000E+00 0. -1.
         11    1    1    2    0    0 -0.37501674074E+02  0.25257017669E+02 -0.47100357377E+02  0.65289632905E+02  0.00000000000E+00 0.  1.
        -15    1    3    3    0    0  0.48350330261E+02  0.36080783597E+02  0.12937224433E+01  0.60368939266E+02  0.17770000000E+01 0. -1.
         15    1    3    3    0    0  0.14114292559E+02  0.10115717584E+02 -0.85780845734E+02  0.87538861202E+02  0.17770000000E+01 0.  1.
</event>
<event>
 7    1  0.2537562E-007  0.1473991E+03  0.7546771E-02  0.1100433E+00
        -11   -1    0    0    0    0  0.00000000000E+00  0.00000000000E+00  0.18250000000E+03  0.18250000000E+03  0.00000000000E+00 0. -1.
         11   -1    0    0    0    0 -0.00000000000E+00 -0.00000000000E+00 -0.18250000000E+03  0.18250000000E+03  0.00000000000E+00 0. -1.
         23    2    1    2    0    0  0.35452882188E+02  0.65663920402E+02  0.13350166661E+03  0.17995940326E+03  0.94836883830E+02 0.  0.
        -11    1    1    2    0    0 -0.19834931762E+02 -0.77701629855E+02 -0.40251189824E+02  0.89728067417E+02  0.00000000000E+00 0. -1.
         11    1    1    2    0    0 -0.15617950426E+02  0.12037709454E+02 -0.93250476791E+02  0.95312529324E+02  0.00000000000E+00 0. -1.
        -15    1    3    3    0    0  0.55236618497E+01  0.84870806500E+02  0.94366057213E+02  0.12704989224E+03  0.17770000000E+01 0. -1.
         15    1    3    3    0    0  0.29929220338E+02 -0.19206886098E+02  0.39135609402E+02  0.52909511016E+02  0.17770000000E+01 0.  1.
</event>
<event>
 7    1  0.2537562E-007  0.1499591E+03  0.7546771E-02  0.1097783E+00
        -11   -1    0    0    0    0  0.00000000000E+00  0.00000000000E+00  0.18250000000E+03  0.18250000000E+03  0.00000000000E+00 0.  1.
         11   -1    0    0    0    0 -0.00000000000E+00 -0.00000000000E+00 -0.18250000000E+03  0.18250000000E+03  0.00000000000E+00 0.  1.
         23    2    1    2    0    0 -0.48159756078E+02 -0.58254267446E+01  0.11789365698E+03  0.15553499074E+03  0.89100624508E+02 0.  0.
        -11    1    1    2    0    0  0.84918276830E+02 -0.55279801513E+02 -0.76987403718E+02  0.12725576815E+03  0.00000000000E+00 0.  1.
         11    1    1    2    0    0 -0.36758520752E+02  0.61105228257E+02 -0.40906253261E+02  0.82209241111E+02  0.00000000000E+00 0.  1.
        -15    1    3    3    0    0 -0.24492196808E+02  0.35617557065E+02  0.22291397508E+02  0.48667671072E+02  0.17770000000E+01 0. -1.
         15    1    3    3    0    0 -0.23667559270E+02 -0.41442983810E+02  0.95602259471E+02  0.10686731967E+03  0.17770000000E+01 0.  1.
</event>
<event>
 7    1  0.2537562E-007  0.1716469E+03  0.7546771E-02  0.1077438E+00
        -11   -1    0    0    0    0  0.00000000000E+00  0.00000000000E+00  0.18250000000E+03  0.18250000000E+03  0.00000000000E+00 0.  1.
         11   -1    0    0    0    0 -0.00000000000E+00 -0.00000000000E+00 -0.18250000000E+03  0.18250000000E+03  0.00000000000E+00 0.  1.
         23    2    1    2    0    0 -0.17204340834E+02 -0.36673850185E+02  0.13123881279E+03  0.16523176998E+03  0.91852878004E+02 0.  0.
        -11    1    1    2    0    0  0.43207795895E+02  0.40016877599E+01 -0.14840618845E+03  0.15461993371E+03  0.00000000000E+00 0.  1.
         11    1    1    2    0    0 -0.26003455061E+02  0.32672162425E+02  0.17167375660E+02  0.45148296310E+02  0.00000000000E+00 0.  1.
        -15    1    3    3    0    0 -0.24235989880E+02  0.10942609245E+02  0.13333347300E+01  0.26684441404E+02  0.17770000000E+01 0. -1.
         15    1    3    3    0    0  0.70316490455E+01 -0.47616459430E+02  0.12990547806E+03  0.13854732858E+03  0.17770000000E+01 0.  1.
</event>
<event>
 7    1  0.2537562E-007  0.1682519E+03  0.7546771E-02  0.1080398E+00
        -11   -1    0    0    0    0  0.00000000000E+00  0.00000000000E+00  0.18250000000E+03  0.18250000000E+03  0.00000000000E+00 0. -1.
         11   -1    0    0    0    0 -0.00000000000E+00 -0.00000000000E+00 -0.18250000000E+03  0.18250000000E+03  0.00000000000E+00 0.  1.
         23    2    1    2    0    0  0.21497768469E+01 -0.31654604392E+02  0.14516797413E+03  0.17546929633E+03  0.93322546694E+02 0.  0.
        -11    1    1    2    0    0 -0.77253253302E+01 -0.42342905560E+02 -0.29776629905E+02  0.52337844733E+02  0.00000000000E+00 0. -1.
         11    1    1    2    0    0  0.55755484834E+01  0.73997509953E+02 -0.11539134423E+03  0.13719285894E+03  0.00000000000E+00 0.  1.
        -15    1    3    3    0    0  0.34019496784E+02 -0.42555302259E+02  0.48065332010E+02  0.72675400116E+02  0.17770000000E+01 0.  1.
         15    1    3    3    0    0 -0.31869719937E+02  0.10900697867E+02  0.97102642123E+02  0.10279389622E+03  0.17770000000E+01 0. -1.
</event>
<event>
 7    1  0.2537562E-007  0.1700925E+03  0.7546771E-02  0.1078784E+00
        -11   -1    0    0    0    0  0.00000000000E+00  0.00000000000E+00  0.18250000000E+03  0.18250000000E+03  0.00000000000E+00 0.  1.
         11   -1    0    0    0    0 -0.00000000000E+00 -0.00000000000E+00 -0.18250000000E+03  0.18250000000E+03  0.00000000000E+00 0.  1.
         23    2    1    2    0    0  0.55080749821E+01 -0.37647765779E+01  0.12884178239E+03  0.15714340359E+03  0.89718069350E+02 0.  0.
        -11    1    1    2    0    0  0.32120045018E+02 -0.22985170178E+02  0.25329464278E+02  0.46921179660E+02  0.00000000000E+00 0.  1.
         11    1    1    2    0    0 -0.37628120000E+02  0.26749946756E+02 -0.15417124667E+03  0.16093541675E+03  0.00000000000E+00 0.  1.
        -15    1    3    3    0    0 -0.35125044228E+02 -0.15095271757E+02  0.26831499366E+02  0.46741021048E+02  0.17770000000E+01 0. -1.
         15    1    3    3    0    0  0.40633119210E+02  0.11330495179E+02  0.10201028303E+03  0.11040238254E+03  0.17770000000E+01 0.  1.
</event>
<event>
 7    1  0.2537562E-007  0.1884420E+03  0.7546771E-02  0.1063821E+00
        -11   -1    0    0    0    0  0.00000000000E+00  0.00000000000E+00  0.18250000000E+03  0.18250000000E+03  0.00000000000E+00 0. -1.
         11   -1    0    0    0    0 -0.00000000000E+00 -0.00000000000E+00 -0.18250000000E+03  0.18250000000E+03  0.00000000000E+00 0.  1.
         23    2    1    2    0    0 -0.11550869279E+03  0.90246688665E+02 -0.70312581204E+02  0.18602891282E+03  0.90422200825E+02 0.  0.
        -11    1    1    2    0    0  0.12480645444E+03 -0.85090192332E+02  0.73340903921E+02  0.16791628893E+03  0.00000000000E+00 0.  1.
         11    1    1    2    0    0 -0.92977616422E+01 -0.51564963326E+01 -0.30283227171E+01  0.11054798255E+02  0.00000000000E+00 0. -1.
        -15    1    3    3    0    0 -0.26976209032E+02 -0.98024609911E-01 -0.51457706488E+02  0.58127263384E+02  0.17770000000E+01 0.  1.
         15    1    3    3    0    0 -0.88532483761E+02  0.90344713275E+02 -0.18854874716E+02  0.12790164943E+03  0.17770000000E+01 0. -1.
</event>
<event>
 7    1  0.2537562E-007  0.1522183E+03  0.7546771E-02  0.1095493E+00
        -11   -1    0    0    0    0  0.00000000000E+00  0.00000000000E+00  0.18250000000E+03  0.18250000000E+03  0.00000000000E+00 0.  1.
         11   -1    0    0    0    0 -0.00000000000E+00 -0.00000000000E+00 -0.18250000000E+03  0.18250000000E+03  0.00000000000E+00 0.  1.
         23    2    1    2    0    0 -0.57473017861E+01  0.25738705832E+02  0.89937157837E+02  0.13031607680E+03  0.90543222032E+02 0.  0.
        -11    1    1    2    0    0 -0.42214996740E+02 -0.34115636612E+02  0.57705361607E+02  0.79220523663E+02  0.00000000000E+00 0.  1.
         11    1    1    2    0    0  0.47962298526E+02  0.83769307801E+01 -0.14764251944E+03  0.15546339954E+03  0.00000000000E+00 0.  1.
        -15    1    3    3    0    0  0.12412668588E+01 -0.80221032334E+00  0.10074071169E+03  0.10076722188E+03  0.17770000000E+01 0. -1.
         15    1    3    3    0    0 -0.69885686449E+01  0.26540916155E+02 -0.10803553851E+02  0.29548854916E+02  0.17770000000E+01 0.  1.
</event>
<event>
 7    1  0.2537562E-007  0.1234836E+03  0.7546771E-02  0.1128458E+00
        -11   -1    0    0    0    0  0.00000000000E+00  0.00000000000E+00  0.18250000000E+03  0.18250000000E+03  0.00000000000E+00 0.  1.
         11   -1    0    0    0    0 -0.00000000000E+00 -0.00000000000E+00 -0.18250000000E+03  0.18250000000E+03  0.00000000000E+00 0. -1.
         23    2    1    2    0    0  0.15995379330E+02 -0.40184040140E+02  0.44559586061E+02  0.11034541752E+03  0.91213733708E+02 0.  0.
        -11    1    1    2    0    0 -0.77944372091E+02  0.61386782158E+01  0.79730704500E+02  0.11166912622E+03  0.00000000000E+00 0.  1.
         11    1    1    2    0    0  0.61948992761E+02  0.34045361924E+02 -0.12429029056E+03  0.14298545625E+03  0.00000000000E+00 0. -1.
        -15    1    3    3    0    0 -0.53454628130E+01 -0.44575431154E+02  0.65923995593E+02  0.79778906731E+02  0.17770000000E+01 0. -1.
         15    1    3    3    0    0  0.21340842143E+02  0.43913910136E+01 -0.21364409533E+02  0.30566510793E+02  0.17770000000E+01 0.  1.
</event>
<event>
 7    1  0.2537562E-007  0.1723962E+03  0.7546771E-02  0.1076794E+00
        -11   -1    0    0    0    0  0.00000000000E+00  0.00000000000E+00  0.18250000000E+03  0.18250000000E+03  0.00000000000E+00 0. -1.
         11   -1    0    0    0    0 -0.00000000000E+00 -0.00000000000E+00 -0.18250000000E+03  0.18250000000E+03  0.00000000000E+00 0. -1.
         23    2    1    2    0    0  0.16181680078E+01  0.40493360549E+02  0.95354950227E+02  0.15187141354E+03  0.11104066373E+03 0.  0.
        -11    1    1    2    0    0 -0.16525526057E+02  0.18975431361E+02  0.49668312048E+02  0.55678552680E+02  0.00000000000E+00 0. -1.
         11    1    1    2    0    0  0.14907358049E+02 -0.59468791911E+02 -0.14502326228E+03  0.15745003378E+03  0.00000000000E+00 0. -1.
        -15    1    3    3    0    0 -0.51817678783E+02  0.24525214188E+02  0.70234489517E+02  0.90678548798E+02  0.17770000000E+01 0. -1.
         15    1    3    3    0    0  0.53435846791E+02  0.15968146362E+02  0.25120460710E+02  0.61192864745E+02  0.17770000000E+01 0.  1.
</event>
<event>
 7    1  0.2537562E-007  0.1695020E+03  0.7546771E-02  0.1079299E+00
        -11   -1    0    0    0    0  0.00000000000E+00  0.00000000000E+00  0.18250000000E+03  0.18250000000E+03  0.00000000000E+00 0. -1.
         11   -1    0    0    0    0 -0.00000000000E+00 -0.00000000000E+00 -0.18250000000E+03  0.18250000000E+03  0.00000000000E+00 0.  1.
         23    2    1    2    0    0  0.15361260539E+02 -0.66698416657E+02  0.11720688210E+03  0.16515948822E+03  0.94103964986E+02 0.  0.
        -11    1    1    2    0    0  0.49441308289E+02  0.89988428998E+01  0.44071381462E+01  0.50446456818E+02  0.00000000000E+00 0. -1.
         11    1    1    2    0    0 -0.64802568828E+02  0.57699573757E+02 -0.12161402025E+03  0.14939405497E+03  0.00000000000E+00 0.  1.
        -15    1    3    3    0    0 -0.10353972034E+02 -0.29150275954E+02 -0.79367560366E+01  0.31985827338E+02  0.17770000000E+01 0.  1.
         15    1    3    3    0    0  0.25715232573E+02 -0.37548140703E+02  0.12514363814E+03  0.13317366088E+03  0.17770000000E+01 0. -1.
</event>
<event>
 7    1  0.2537562E-007  0.1586700E+03  0.7546771E-02  0.1089184E+00
        -11   -1    0    0    0    0  0.00000000000E+00  0.00000000000E+00  0.18250000000E+03  0.18250000000E+03  0.00000000000E+00 0. -1.
         11   -1    0    0    0    0 -0.00000000000E+00 -0.00000000000E+00 -0.18250000000E+03  0.18250000000E+03  0.00000000000E+00 0. -1.
         23    2    1    2    0    0 -0.10813671548E+01  0.22954319278E+02  0.95893314641E+02  0.13884701701E+03  0.97749149415E+02 0.  0.
        -11    1    1    2    0    0  0.56601663789E+02  0.12878928920E+02  0.43067946279E+02  0.72280447913E+02  0.00000000000E+00 0. -1.
         11    1    1    2    0    0 -0.55520296634E+02 -0.35833248198E+02 -0.13896126092E+03  0.15387253508E+03  0.00000000000E+00 0. -1.
        -15    1    3    3    0    0 -0.28488983435E+02 -0.29284753900E+02  0.32528725097E+02  0.52254135468E+02  0.17770000000E+01 0.  1.
         15    1    3    3    0    0  0.27407616280E+02  0.52239073178E+02  0.63364589544E+02  0.86592881542E+02  0.17770000000E+01 0. -1.
</event>
<event>
 7    1  0.2537562E-007  0.1801664E+03  0.7546771E-02  0.1070328E+00
        -11   -1    0    0    0    0  0.00000000000E+00  0.00000000000E+00  0.18250000000E+03  0.18250000000E+03  0.00000000000E+00 0. -1.
         11   -1    0    0    0    0 -0.00000000000E+00 -0.00000000000E+00 -0.18250000000E+03  0.18250000000E+03  0.00000000000E+00 0. -1.
         23    2    1    2    0    0 -0.22480506753E+02 -0.16100812549E+02  0.14458877201E+03  0.17302814830E+03  0.90929740811E+02 0.  0.
        -11    1    1    2    0    0 -0.25808917655E+02  0.10967961973E+00  0.11165911493E+02  0.28120985751E+02  0.00000000000E+00 0. -1.
         11    1    1    2    0    0  0.48289424408E+02  0.15991132929E+02 -0.15575468350E+03  0.16385086595E+03  0.00000000000E+00 0. -1.
        -15    1    3    3    0    0 -0.41374897570E+02  0.22236601469E+02  0.46982835715E+02  0.66459710913E+02  0.17770000000E+01 0.  1.
         15    1    3    3    0    0  0.18894390817E+02 -0.38337414018E+02  0.97605936291E+02  0.10656843738E+03  0.17770000000E+01 0. -1.
</event>
<event>
 7    1  0.2537562E-007  0.1572381E+03  0.7546771E-02  0.1090555E+00
        -11   -1    0    0    0    0  0.00000000000E+00  0.00000000000E+00  0.18250000000E+03  0.18250000000E+03  0.00000000000E+00 0.  1.
         11   -1    0    0    0    0 -0.00000000000E+00 -0.00000000000E+00 -0.18250000000E+03  0.18250000000E+03  0.00000000000E+00 0.  1.
         23    2    1    2    0    0  0.60394132370E+02 -0.48552321300E+02  0.12636663656E+03  0.17350123646E+03  0.90163036171E+02 0.  0.
        -11    1    1    2    0    0 -0.68433353576E+02 -0.16524778219E+01 -0.16464818062E+02  0.70405573632E+02  0.00000000000E+00 0.  1.
         11    1    1    2    0    0  0.80392212063E+01  0.50204799122E+02 -0.10990181849E+03  0.12109318990E+03  0.00000000000E+00 0.  1.
        -15    1    3    3    0    0  0.20439453975E+02  0.48313430733E+01  0.99305128454E+02  0.10151738482E+03  0.17770000000E+01 0.  1.
         15    1    3    3    0    0  0.39954678395E+02 -0.53383664374E+02  0.27061508103E+02  0.71983851643E+02  0.17770000000E+01 0. -1.
</event>
<event>
 7    1  0.2537562E-007  0.1277074E+03  0.7546771E-02  0.1123022E+00
        -11   -1    0    0    0    0  0.00000000000E+00  0.00000000000E+00  0.18250000000E+03  0.18250000000E+03  0.00000000000E+00 0. -1.
         11   -1    0    0    0    0 -0.00000000000E+00 -0.00000000000E+00 -0.18250000000E+03  0.18250000000E+03  0.00000000000E+00 0.  1.
         23    2    1    2    0    0 -0.14794877823E+02  0.33055430390E+02  0.35782401211E+02  0.10456075213E+03  0.91329188990E+02 0.  0.
        -11    1    1    2    0    0  0.69987055497E+02  0.68423190356E+01  0.91907187119E+02  0.11572353396E+03  0.00000000000E+00 0. -1.
         11    1    1    2    0    0 -0.55192177674E+02 -0.39897749425E+02 -0.12768958833E+03  0.14471571391E+03  0.00000000000E+00 0.  1.
        -15    1    3    3    0    0 -0.23525526698E+02  0.55677162625E+02  0.48135972364E+02  0.77289238635E+02  0.17770000000E+01 0. -1.
         15    1    3    3    0    0  0.87306488747E+01 -0.22621732235E+02 -0.12353571153E+02  0.27271513495E+02  0.17770000000E+01 0.  1.
</event>
<event>
 7    1  0.2537562E-007  0.2139343E+03  0.7546771E-02  0.1045867E+00
        -11   -1    0    0    0    0  0.00000000000E+00  0.00000000000E+00  0.18250000000E+03  0.18250000000E+03  0.00000000000E+00 0. -1.
         11   -1    0    0    0    0 -0.00000000000E+00 -0.00000000000E+00 -0.18250000000E+03  0.18250000000E+03  0.00000000000E+00 0.  1.
         23    2    1    2    0    0  0.14691245314E+00  0.33473132337E+02 -0.46061831801E+02  0.10827533520E+03  0.92094428132E+02 0.  0.
        -11    1    1    2    0    0  0.75157000558E+02 -0.75363273219E+02  0.10720383182E+03  0.15106574476E+03  0.00000000000E+00 0. -1.
         11    1    1    2    0    0 -0.75303913011E+02  0.41890140882E+02 -0.61142000014E+02  0.10565892004E+03  0.00000000000E+00 0.  1.
        -15    1    3    3    0    0 -0.36299769197E+02 -0.71032959379E+01 -0.38092837748E+02  0.53125813628E+02  0.17770000000E+01 0. -1.
         15    1    3    3    0    0  0.36446681650E+02  0.40576428275E+02 -0.79689940537E+01  0.55149521576E+02  0.17770000000E+01 0.  1.
</event>
<event>
 7    1  0.2537562E-007  0.1341417E+03  0.7546771E-02  0.1115173E+00
        -11   -1    0    0    0    0  0.00000000000E+00  0.00000000000E+00  0.18250000000E+03  0.18250000000E+03  0.00000000000E+00 0.  1.
         11   -1    0    0    0    0 -0.00000000000E+00 -0.00000000000E+00 -0.18250000000E+03  0.18250000000E+03  0.00000000000E+00 0.  1.
         23    2    1    2    0    0  0.29985388209E+02  0.33630703167E+02  0.10139117239E+03  0.14276095063E+03  0.89835246347E+02 0.  0.
        -11    1    1    2    0    0 -0.10440390358E+03  0.81519071740E+01 -0.24921474378E+02  0.10764621944E+03  0.00000000000E+00 0.  1.
         11    1    1    2    0    0  0.74418515375E+02 -0.41782610341E+02 -0.76469698009E+02  0.11459282993E+03  0.00000000000E+00 0.  1.
        -15    1    3    3    0    0  0.48202168270E+02  0.49518157466E+02  0.95368488074E+02  0.11778710961E+03  0.17770000000E+01 0.  1.
         15    1    3    3    0    0 -0.18216780061E+02 -0.15887454299E+02  0.60226843128E+01  0.24973841019E+02  0.17770000000E+01 0. -1.
</event>
<event>
 7    1  0.2537562E-007  0.1903186E+03  0.7546771E-02  0.1062396E+00
        -11   -1    0    0    0    0  0.00000000000E+00  0.00000000000E+00  0.18250000000E+03  0.18250000000E+03  0.00000000000E+00 0. -1.
         11   -1    0    0    0    0 -0.00000000000E+00 -0.00000000000E+00 -0.18250000000E+03  0.18250000000E+03  0.00000000000E+00 0.  1.
         23    2    1    2    0    0  0.32072019364E+02  0.36402783453E+01  0.16485683097E+03  0.19031857674E+03  0.89451215086E+02 0.  0.
        -11    1    1    2    0    0 -0.11596287806E+02  0.22044774515E+02 -0.71216789041E+02  0.75447180303E+02  0.00000000000E+00 0. -1.
         11    1    1    2    0    0 -0.20475731559E+02 -0.25685052860E+02 -0.93640041930E+02  0.99234242961E+02  0.00000000000E+00 0.  1.
        -15    1    3    3    0    0  0.55989471806E+02  0.73459349974E+01  0.58891047052E+02  0.81609416528E+02  0.17770000000E+01 0.  1.
         15    1    3    3    0    0 -0.23917452442E+02 -0.37056566521E+01  0.10596578392E+03  0.10870916021E+03  0.17770000000E+01 0. -1.
</event>
<event>
 7    1  0.2537562E-007  0.1346134E+03  0.7546771E-02  0.1114617E+00
        -11   -1    0    0    0    0  0.00000000000E+00  0.00000000000E+00  0.18250000000E+03  0.18250000000E+03  0.00000000000E+00 0.  1.
         11   -1    0    0    0    0 -0.00000000000E+00 -0.00000000000E+00 -0.18250000000E+03  0.18250000000E+03  0.00000000000E+00 0. -1.
         23    2    1    2    0    0  0.26995771276E+02 -0.81148933073E+01  0.83740427056E+01  0.94172046797E+02  0.89462990374E+02 0.  0.
        -11    1    1    2    0    0  0.96258585716E+01  0.67675834873E+02  0.11223780451E+03  0.13141537406E+03  0.00000000000E+00 0.  1.
         11    1    1    2    0    0 -0.36621629847E+02 -0.59560941566E+02 -0.12061184722E+03  0.13941257914E+03  0.00000000000E+00 0. -1.
        -15    1    3    3    0    0  0.25385675545E+02 -0.39230882211E+02 -0.21048948200E+02  0.51280703888E+02  0.17770000000E+01 0. -1.
         15    1    3    3    0    0  0.16100957309E+01  0.31115988903E+02  0.29422990906E+02  0.42891342909E+02  0.17770000000E+01 0.  1.
</event>
<event>
 7    1  0.2537562E-007  0.2103810E+03  0.7546771E-02  0.1048201E+00
        -11   -1    0    0    0    0  0.00000000000E+00  0.00000000000E+00  0.18250000000E+03  0.18250000000E+03  0.00000000000E+00 0.  1.
         11   -1    0    0    0    0 -0.00000000000E+00 -0.00000000000E+00 -0.18250000000E+03  0.18250000000E+03  0.00000000000E+00 0.  1.
         23    2    1    2    0    0 -0.22419878011E+02 -0.12884872079E+02 -0.71539965629E+02  0.11758877791E+03  0.89668741201E+02 0.  0.
        -11    1    1    2    0    0 -0.22103966839E+02  0.81388916034E+01  0.15281424434E+03  0.15461895156E+03  0.00000000000E+00 0.  1.
         11    1    1    2    0    0  0.44523844850E+02  0.47459804755E+01 -0.81274278714E+02  0.92792270537E+02  0.00000000000E+00 0.  1.
        -15    1    3    3    0    0  0.20816305919E+02 -0.14430928519E+02 -0.69776190835E+02  0.74252574544E+02  0.17770000000E+01 0.  1.
         15    1    3    3    0    0 -0.43236183929E+02  0.15460564402E+01 -0.17637747945E+01  0.43336203362E+02  0.17770000000E+01 0. -1.
</event>
<event>
 7    1  0.2537562E-007  0.1505882E+03  0.7546771E-02  0.1097141E+00
        -11   -1    0    0    0    0  0.00000000000E+00  0.00000000000E+00  0.18250000000E+03  0.18250000000E+03  0.00000000000E+00 0.  1.
         11   -1    0    0    0    0 -0.00000000000E+00 -0.00000000000E+00 -0.18250000000E+03  0.18250000000E+03  0.00000000000E+00 0. -1.
         23    2    1    2    0    0 -0.75902170894E+02  0.38481047824E+02 -0.59548938249E+02  0.13744762348E+03  0.90021345049E+02 0.  0.
        -11    1    1    2    0    0  0.43657822068E+02 -0.35740213809E+02  0.13453201961E+03  0.14588431243E+03  0.00000000000E+00 0.  1.
         11    1    1    2    0    0  0.32244348827E+02 -0.27408340147E+01 -0.74983081365E+02  0.81668064097E+02  0.00000000000E+00 0. -1.
        -15    1    3    3    0    0 -0.35570483354E+02  0.66015004535E+02 -0.35641887866E+02  0.83046625515E+02  0.17770000000E+01 0. -1.
         15    1    3    3    0    0 -0.40331687541E+02 -0.27533956712E+02 -0.23907050383E+02  0.54400997961E+02  0.17770000000E+01 0.  1.
</event>
<event>
 7    1  0.2537562E-007  0.1647658E+03  0.7546771E-02  0.1083519E+00
        -11   -1    0    0    0    0  0.00000000000E+00  0.00000000000E+00  0.18250000000E+03  0.18250000000E+03  0.00000000000E+00 0.  1.
         11   -1    0    0    0    0 -0.00000000000E+00 -0.00000000000E+00 -0.18250000000E+03  0.18250000000E+03  0.00000000000E+00 0. -1.
         23    2    1    2    0    0  0.92375716268E+02  0.16002168879E+02 -0.10524114367E+03  0.16628723729E+03  0.88240606292E+02 0.  0.
        -11    1    1    2    0    0 -0.44692823192E+02 -0.16424772938E+02  0.13455967305E+03  0.14273586523E+03  0.00000000000E+00 0.  1.
         11    1    1    2    0    0 -0.47682893076E+02  0.42260405833E+00 -0.29318529388E+02  0.55976897482E+02  0.00000000000E+00 0. -1.
        -15    1    3    3    0    0  0.10720809255E+03  0.12414557249E+02 -0.72232194669E+02  0.12987818915E+03  0.17770000000E+01 0. -1.
         15    1    3    3    0    0 -0.14832376284E+02  0.35876116307E+01 -0.33008948998E+02  0.36409048139E+02  0.17770000000E+01 0.  1.
</event>
<event>
 7    1  0.2537562E-007  0.1561313E+03  0.7546771E-02  0.1091626E+00
        -11   -1    0    0    0    0  0.00000000000E+00  0.00000000000E+00  0.18250000000E+03  0.18250000000E+03  0.00000000000E+00 0. -1.
         11   -1    0    0    0    0 -0.00000000000E+00 -0.00000000000E+00 -0.18250000000E+03  0.18250000000E+03  0.00000000000E+00 0.  1.
         23    2    1    2    0    0  0.30587785271E+02 -0.23325770789E+02  0.95926060086E+02  0.13851607512E+03  0.92223586320E+02 0.  0.
        -11    1    1    2    0    0 -0.44162473067E+02 -0.40598010927E+02  0.42426218417E+02  0.73474529790E+02  0.00000000000E+00 0. -1.
         11    1    1    2    0    0  0.13574687796E+02  0.63923781716E+02 -0.13835227850E+03  0.15300939509E+03  0.00000000000E+00 0.  1.
        -15    1    3    3    0    0  0.14185960042E+02 -0.21142394182E+02  0.11230358026E+03  0.11516724431E+03  0.17770000000E+01 0. -1.
         15    1    3    3    0    0  0.16401825229E+02 -0.21833766070E+01 -0.16377520175E+02  0.23348830813E+02  0.17770000000E+01 0.  1.
</event>
<event>
 7    1  0.2537562E-007  0.1372628E+03  0.7546771E-02  0.1111539E+00
        -11   -1    0    0    0    0  0.00000000000E+00  0.00000000000E+00  0.18250000000E+03  0.18250000000E+03  0.00000000000E+00 0. -1.
         11   -1    0    0    0    0 -0.00000000000E+00 -0.00000000000E+00 -0.18250000000E+03  0.18250000000E+03  0.00000000000E+00 0.  1.
         23    2    1    2    0    0 -0.72218822440E+02 -0.24519285020E+02 -0.55235552622E+02  0.11988588025E+03  0.74195042666E+02 0.  0.
        -11    1    1    2    0    0  0.36401441222E+02  0.26591032982E+02  0.14319288779E+03  0.15012112134E+03  0.00000000000E+00 0. -1.
         11    1    1    2    0    0  0.35817381218E+02 -0.20717479623E+01 -0.87957335172E+02  0.94992998413E+02  0.00000000000E+00 0.  1.
        -15    1    3    3    0    0 -0.67625962363E+02  0.41558919300E+00 -0.63875196230E+02  0.93041076532E+02  0.17770000000E+01 0.  1.
         15    1    3    3    0    0 -0.45928600772E+01 -0.24934874213E+02  0.86396436079E+01  0.26844803713E+02  0.17770000000E+01 0. -1.
</event>
<event>
 7    1  0.2537562E-007  0.1773277E+03  0.7546771E-02  0.1072648E+00
        -11   -1    0    0    0    0  0.00000000000E+00  0.00000000000E+00  0.18250000000E+03  0.18250000000E+03  0.00000000000E+00 0.  1.
         11   -1    0    0    0    0 -0.00000000000E+00 -0.00000000000E+00 -0.18250000000E+03  0.18250000000E+03  0.00000000000E+00 0. -1.
         23    2    1    2    0    0  0.13263054632E+02 -0.38880135786E+01  0.14155300644E+03  0.16912322910E+03  0.91511680802E+02 0.  0.
        -11    1    1    2    0    0  0.13631499884E+02  0.26493922473E+02  0.16436497589E+02  0.34027990979E+02  0.00000000000E+00 0.  1.
         11    1    1    2    0    0 -0.26894554516E+02 -0.22605908895E+02 -0.15798950402E+03  0.16184877992E+03  0.00000000000E+00 0. -1.
        -15    1    3    3    0    0  0.18447090742E+02  0.13386908371E+02  0.14809958255E+03  0.14985375722E+03  0.17770000000E+01 0.  1.
         15    1    3    3    0    0 -0.51840361105E+01 -0.17274921950E+02 -0.65465761148E+01  0.19269471881E+02  0.17770000000E+01 0. -1.
</event>
<event>
 7    1  0.2537562E-007  0.1734687E+03  0.7546771E-02  0.1075880E+00
        -11   -1    0    0    0    0  0.00000000000E+00  0.00000000000E+00  0.18250000000E+03  0.18250000000E+03  0.00000000000E+00 0. -1.
         11   -1    0    0    0    0 -0.00000000000E+00 -0.00000000000E+00 -0.18250000000E+03  0.18250000000E+03  0.00000000000E+00 0. -1.
         23    2    1    2    0    0 -0.39128155687E+02 -0.10546768746E+02  0.13198996307E+03  0.16630379372E+03  0.92700348188E+02 0.  0.
        -11    1    1    2    0    0  0.13663796672E+02  0.34093886963E+02  0.20669551517E+02  0.42146445018E+02  0.00000000000E+00 0. -1.
         11    1    1    2    0    0  0.25464359015E+02 -0.23547118217E+02 -0.15265951459E+03  0.15654976126E+03  0.00000000000E+00 0. -1.
        -15    1    3    3    0    0 -0.33412992064E+02 -0.49615339449E+02  0.94323630424E+02  0.11170593061E+03  0.17770000000E+01 0. -1.
         15    1    3    3    0    0 -0.57151636225E+01  0.39068570703E+02  0.37666332650E+02  0.54597863111E+02  0.17770000000E+01 0.  1.
</event>
<event>
 7    1  0.2537562E-007  0.1597350E+03  0.7546771E-02  0.1088174E+00
        -11   -1    0    0    0    0  0.00000000000E+00  0.00000000000E+00  0.18250000000E+03  0.18250000000E+03  0.00000000000E+00 0.  1.
         11   -1    0    0    0    0 -0.00000000000E+00 -0.00000000000E+00 -0.18250000000E+03  0.18250000000E+03  0.00000000000E+00 0.  1.
         23    2    1    2    0    0 -0.40166426320E+02  0.32682855177E+02  0.10980258036E+03  0.15113725252E+03  0.90024172429E+02 0.  0.
        -11    1    1    2    0    0  0.52037891092E+02  0.34328368469E+02  0.21522589517E+02  0.65951503778E+02  0.00000000000E+00 0.  1.
         11    1    1    2    0    0 -0.11871464772E+02 -0.67011223645E+02 -0.13132516987E+03  0.14791124370E+03  0.00000000000E+00 0.  1.
        -15    1    3    3    0    0  0.13571574736E+02  0.46239768042E+02  0.55546123149E+02  0.73558366725E+02  0.17770000000E+01 0. -1.
         15    1    3    3    0    0 -0.53738001056E+02 -0.13556912866E+02  0.54256457208E+02  0.77578885798E+02  0.17770000000E+01 0.  1.
</event>
<event>
 7    1  0.2537562E-007  0.1429779E+03  0.7546771E-02  0.1105153E+00
        -11   -1    0    0    0    0  0.00000000000E+00  0.00000000000E+00  0.18250000000E+03  0.18250000000E+03  0.00000000000E+00 0. -1.
         11   -1    0    0    0    0 -0.00000000000E+00 -0.00000000000E+00 -0.18250000000E+03  0.18250000000E+03  0.00000000000E+00 0. -1.
         23    2    1    2    0    0  0.61698191859E+02 -0.53140311306E+01 -0.92970887065E+02  0.14368679859E+03  0.90373693300E+02 0.  0.
        -11    1    1    2    0    0  0.24208712334E+02 -0.19024251432E+02  0.12324474378E+03  0.12703247917E+03  0.00000000000E+00 0. -1.
         11    1    1    2    0    0 -0.85906904193E+02  0.24338282562E+02 -0.30273856715E+02  0.94280722242E+02  0.00000000000E+00 0. -1.
        -15    1    3    3    0    0  0.14049754847E+02 -0.43818434980E+02 -0.54393842750E+02  0.71269198912E+02  0.17770000000E+01 0. -1.
         15    1    3    3    0    0  0.47648437012E+02  0.38504403849E+02 -0.38577044315E+02  0.72417599674E+02  0.17770000000E+01 0.  1.
</event>
<event>
 7    1  0.2537562E-007  0.1502857E+03  0.7546771E-02  0.1097449E+00
        -11   -1    0    0    0    0  0.00000000000E+00  0.00000000000E+00  0.18250000000E+03  0.18250000000E+03  0.00000000000E+00 0.  1.
         11   -1    0    0    0    0 -0.00000000000E+00 -0.00000000000E+00 -0.18250000000E+03  0.18250000000E+03  0.00000000000E+00 0.  1.
         23    2    1    2    0    0 -0.34232669420E+02 -0.36969267590E+02  0.11984132216E+03  0.15972750746E+03  0.92802649422E+02 0.  0.
        -11    1    1    2    0    0  0.95968519080E+02  0.39383167791E+02 -0.63304411070E+02  0.12152546655E+03  0.00000000000E+00 0.  1.
         11    1    1    2    0    0 -0.61735849660E+02 -0.24139002015E+01 -0.56536911087E+02  0.83747025993E+02  0.00000000000E+00 0.  1.
        -15    1    3    3    0    0  0.29619528261E+01  0.23530353160E+02  0.44112013141E+01  0.24188160542E+02  0.17770000000E+01 0. -1.
         15    1    3    3    0    0 -0.37194622246E+02 -0.60499620750E+02  0.11543012084E+03  0.13553934691E+03  0.17770000000E+01 0.  1.
</event>
<event>
 7    1  0.2537562E-007  0.1648132E+03  0.7546771E-02  0.1083476E+00
        -11   -1    0    0    0    0  0.00000000000E+00  0.00000000000E+00  0.18250000000E+03  0.18250000000E+03  0.00000000000E+00 0.  1.
         11   -1    0    0    0    0 -0.00000000000E+00 -0.00000000000E+00 -0.18250000000E+03  0.18250000000E+03  0.00000000000E+00 0. -1.
         23    2    1    2    0    0  0.52638889750E+01 -0.73303647131E+01  0.15829422131E+03  0.18304655159E+03  0.91474241036E+02 0.  0.
        -11    1    1    2    0    0 -0.25674961563E+02  0.34197025760E+02 -0.38643613766E+02  0.57636525806E+02  0.00000000000E+00 0.  1.
         11    1    1    2    0    0  0.20411072588E+02 -0.26866661047E+02 -0.11965060755E+03  0.12431692261E+03  0.00000000000E+00 0. -1.
        -15    1    3    3    0    0 -0.36655148071E+02  0.71992208446E+01  0.11540642415E+03  0.12131458744E+03  0.17770000000E+01 0.  1.
         15    1    3    3    0    0  0.41919037046E+02 -0.14529585558E+02  0.42887797162E+02  0.61731964150E+02  0.17770000000E+01 0. -1.
</event>
<event>
 7    1  0.2537562E-007  0.1546635E+03  0.7546771E-02  0.1093062E+00
        -11   -1    0    0    0    0  0.00000000000E+00  0.00000000000E+00  0.18250000000E+03  0.18250000000E+03  0.00000000000E+00 0. -1.
         11   -1    0    0    0    0 -0.00000000000E+00 -0.00000000000E+00 -0.18250000000E+03  0.18250000000E+03  0.00000000000E+00 0. -1.
         23    2    1    2    0    0 -0.13026621760E+03  0.46110675428E+02 -0.31022639977E+02  0.16836066800E+03  0.91035314588E+02 0.  0.
        -11    1    1    2    0    0  0.10255379364E+03  0.16379523873E+02  0.62682918549E+02  0.12130423600E+03  0.00000000000E+00 0. -1.
         11    1    1    2    0    0  0.27712423959E+02 -0.62490199301E+02 -0.31660278572E+02  0.75335096002E+02  0.00000000000E+00 0. -1.
        -15    1    3    3    0    0 -0.27562407829E+02  0.28932534339E+01 -0.48176735648E+02  0.55607668783E+02  0.17770000000E+01 0.  1.
         15    1    3    3    0    0 -0.10270380977E+03  0.43217421994E+02  0.17154095671E+02  0.11275299922E+03  0.17770000000E+01 0. -1.
</event>
<event>
 7    1  0.2537562E-007  0.1578378E+03  0.7546771E-02  0.1089979E+00
        -11   -1    0    0    0    0  0.00000000000E+00  0.00000000000E+00  0.18250000000E+03  0.18250000000E+03  0.00000000000E+00 0. -1.
         11   -1    0    0    0    0 -0.00000000000E+00 -0.00000000000E+00 -0.18250000000E+03  0.18250000000E+03  0.00000000000E+00 0. -1.
         23    2    1    2    0    0 -0.38921943172E+02  0.52893058258E+02 -0.10732032841E+03  0.15661604330E+03  0.93264885439E+02 0.  0.
        -11    1    1    2    0    0  0.21850760294E+02 -0.11343406130E+03  0.74181517039E+02  0.13728670532E+03  0.00000000000E+00 0. -1.
         11    1    1    2    0    0  0.17071182878E+02  0.60541003040E+02  0.33138811376E+02  0.71097251377E+02  0.00000000000E+00 0. -1.
        -15    1    3    3    0    0 -0.63732743110E+02  0.15966346330E+02 -0.83036624336E+02  0.10590101732E+03  0.17770000000E+01 0. -1.
         15    1    3    3    0    0  0.24810799938E+02  0.36926711928E+02 -0.24283704079E+02  0.50715025980E+02  0.17770000000E+01 0.  1.
</event>
<event>
 7    1  0.2537562E-007  0.2161883E+03  0.7546771E-02  0.1044411E+00
        -11   -1    0    0    0    0  0.00000000000E+00  0.00000000000E+00  0.18250000000E+03  0.18250000000E+03  0.00000000000E+00 0.  1.
         11   -1    0    0    0    0 -0.00000000000E+00 -0.00000000000E+00 -0.18250000000E+03  0.18250000000E+03  0.00000000000E+00 0. -1.
         23    2    1    2    0    0  0.45381500745E+02  0.82971290322E+01  0.53534158546E+02  0.11749350855E+03  0.93864239514E+02 0.  0.
        -11    1    1    2    0    0  0.49243808421E+01 -0.64016239032E+02  0.74955579816E+02  0.98694819175E+02  0.00000000000E+00 0.  1.
         11    1    1    2    0    0 -0.50305881587E+02  0.55719110000E+02 -0.12848973836E+03  0.14881167228E+03  0.00000000000E+00 0. -1.
        -15    1    3    3    0    0  0.59244688414E+02  0.24349877735E+02  0.66678600864E+02  0.92477257708E+02  0.17770000000E+01 0.  1.
         15    1    3    3    0    0 -0.13863187669E+02 -0.16052748703E+02 -0.13144442318E+02  0.25016250840E+02  0.17770000000E+01 0. -1.
</event>
<event>
 7    1  0.2537562E-007  0.1341664E+03  0.7546771E-02  0.1115144E+00
        -11   -1    0    0    0    0  0.00000000000E+00  0.00000000000E+00  0.18250000000E+03  0.18250000000E+03  0.00000000000E+00 0.  1.
         11   -1    0    0    0    0 -0.00000000000E+00 -0.00000000000E+00 -0.18250000000E+03  0.18250000000E+03  0.00000000000E+00 0.  1.
         23    2    1    2    0    0 -0.16956123883E+02  0.14084604311E+02  0.54528869579E+02  0.11031207503E+03  0.93324541595E+02 0.  0.
        -11    1    1    2    0    0  0.10769364688E+03  0.36243803110E+02 -0.90082889983E+02  0.14500504098E+03  0.00000000000E+00 0.  1.
         11    1    1    2    0    0 -0.90737522998E+02 -0.50328407422E+02  0.35554020404E+02  0.10968288399E+03  0.00000000000E+00 0.  1.
        -15    1    3    3    0    0  0.15424037285E+02  0.45855550467E+02  0.16679625621E+02  0.51205469187E+02  0.17770000000E+01 0.  1.
         15    1    3    3    0    0 -0.32380161168E+02 -0.31770946156E+02  0.37849243958E+02  0.59106605841E+02  0.17770000000E+01 0. -1.
</event>
<event>
 7    1  0.2537562E-007  0.1596536E+03  0.7546771E-02  0.1088251E+00
        -11   -1    0    0    0    0  0.00000000000E+00  0.00000000000E+00  0.18250000000E+03  0.18250000000E+03  0.00000000000E+00 0.  1.
         11   -1    0    0    0    0 -0.00000000000E+00 -0.00000000000E+00 -0.18250000000E+03  0.18250000000E+03  0.00000000000E+00 0. -1.
         23    2    1    2    0    0 -0.11657489302E+01 -0.91522685205E+01  0.12314426519E+03  0.15522335274E+03  0.94046032335E+02 0.  0.
        -11    1    1    2    0    0 -0.67304297159E+02 -0.11853947900E+02 -0.11938338243E+01  0.68350638154E+02  0.00000000000E+00 0.  1.
         11    1    1    2    0    0  0.68470046089E+02  0.21006216421E+02 -0.12195043137E+03  0.14142600910E+03  0.00000000000E+00 0. -1.
        -15    1    3    3    0    0  0.42250164199E+00 -0.13446034216E+02  0.13846832814E+03  0.13913162822E+03  0.17770000000E+01 0.  1.
         15    1    3    3    0    0 -0.15882505722E+01  0.42937656954E+01 -0.15324062952E+02  0.16091724522E+02  0.17770000000E+01 0. -1.
</event>
<event>
 7    1  0.2537562E-007  0.1403886E+03  0.7546771E-02  0.1108005E+00
        -11   -1    0    0    0    0  0.00000000000E+00  0.00000000000E+00  0.18250000000E+03  0.18250000000E+03  0.00000000000E+00 0.  1.
         11   -1    0    0    0    0 -0.00000000000E+00 -0.00000000000E+00 -0.18250000000E+03  0.18250000000E+03  0.00000000000E+00 0. -1.
         23    2    1    2    0    0 -0.10681516814E+02  0.46750213792E+02 -0.47381621028E+02  0.11870165946E+03  0.97700504892E+02 0.  0.
        -11    1    1    2    0    0 -0.38862469164E+02 -0.27477607150E+02  0.13537234404E+03  0.14349558158E+03  0.00000000000E+00 0.  1.
         11    1    1    2    0    0  0.49543985978E+02 -0.19272606643E+02 -0.87990723009E+02  0.10280275896E+03  0.00000000000E+00 0. -1.
        -15    1    3    3    0    0 -0.30471859674E+01  0.39254442810E+02  0.24235580394E+02  0.46267890688E+02  0.17770000000E+01 0.  1.
         15    1    3    3    0    0 -0.76343308469E+01  0.74957709818E+01 -0.71617201421E+02  0.72433768772E+02  0.17770000000E+01 0. -1.
</event>
<event>
 7    1  0.2537562E-007  0.2130171E+03  0.7546771E-02  0.1046465E+00
        -11   -1    0    0    0    0  0.00000000000E+00  0.00000000000E+00  0.18250000000E+03  0.18250000000E+03  0.00000000000E+00 0.  1.
         11   -1    0    0    0    0 -0.00000000000E+00 -0.00000000000E+00 -0.18250000000E+03  0.18250000000E+03  0.00000000000E+00 0.  1.
         23    2    1    2    0    0  0.12049223337E+02  0.28688753593E+02  0.70313843352E+02  0.11837130027E+03  0.89997221035E+02 0.  0.
        -11    1    1    2    0    0  0.63814554546E+02  0.66887327936E+02  0.20288112499E+02  0.94645758062E+02  0.00000000000E+00 0.  1.
         11    1    1    2    0    0 -0.75863777883E+02 -0.95576081529E+02 -0.90601955851E+02  0.15198294167E+03  0.00000000000E+00 0.  1.
        -15    1    3    3    0    0 -0.12318834350E+02 -0.29459377607E+02  0.20345360745E+02  0.37903826213E+02  0.17770000000E+01 0. -1.
         15    1    3    3    0    0  0.24368057688E+02  0.58148131200E+02  0.49968482607E+02  0.80467474053E+02  0.17770000000E+01 0.  1.
</event>
<event>
 7    1  0.2537562E-007  0.1895302E+03  0.7546771E-02  0.1062993E+00
        -11   -1    0    0    0    0  0.00000000000E+00  0.00000000000E+00  0.18250000000E+03  0.18250000000E+03  0.00000000000E+00 0.  1.
         11   -1    0    0    0    0 -0.00000000000E+00 -0.00000000000E+00 -0.18250000000E+03  0.18250000000E+03  0.00000000000E+00 0.  1.
         23    2    1    2    0    0  0.70456821061E+01 -0.26245956499E+01  0.16835558458E+03  0.18953019004E+03  0.86726927408E+02 0.  0.
        -11    1    1    2    0    0 -0.28079675996E+02  0.27789673421E+01 -0.88433745918E+02  0.92826280119E+02  0.00000000000E+00 0.  1.
         11    1    1    2    0    0  0.21033993890E+02 -0.15437169215E+00 -0.79921838663E+02  0.82643529843E+02  0.00000000000E+00 0.  1.
        -15    1    3    3    0    0 -0.23245341421E+02  0.67594688438E-02  0.56359915667E+01  0.23984746682E+02  0.17770000000E+01 0. -1.
         15    1    3    3    0    0  0.30291023527E+02 -0.26313551188E+01  0.16271959301E+03  0.16554544336E+03  0.17770000000E+01 0.  1.
</event>
<event>
 7    1  0.2537562E-007  0.1520648E+03  0.7546771E-02  0.1095647E+00
        -11   -1    0    0    0    0  0.00000000000E+00  0.00000000000E+00  0.18250000000E+03  0.18250000000E+03  0.00000000000E+00 0.  1.
         11   -1    0    0    0    0 -0.00000000000E+00 -0.00000000000E+00 -0.18250000000E+03  0.18250000000E+03  0.00000000000E+00 0.  1.
         23    2    1    2    0    0 -0.20160044522E+02  0.44657150258E+02  0.13228521384E+03  0.16811546209E+03  0.91448030747E+02 0.  0.
        -11    1    1    2    0    0 -0.54047994162E+02 -0.41361998103E+02 -0.42022008497E+02  0.79986559859E+02  0.00000000000E+00 0.  1.
         11    1    1    2    0    0  0.74208038684E+02 -0.32951521553E+01 -0.90263205347E+02  0.11689797805E+03  0.00000000000E+00 0.  1.
        -15    1    3    3    0    0 -0.39954495237E+02 -0.81923077813E+00  0.10298753170E+03  0.11048358359E+03  0.17770000000E+01 0.  1.
         15    1    3    3    0    0  0.19794450715E+02  0.45476381036E+02  0.29297682147E+02  0.57631878500E+02  0.17770000000E+01 0. -1.
</event>
<event>
 7    1  0.2537562E-007  0.1446840E+03  0.7546771E-02  0.1103310E+00
        -11   -1    0    0    0    0  0.00000000000E+00  0.00000000000E+00  0.18250000000E+03  0.18250000000E+03  0.00000000000E+00 0. -1.
         11   -1    0    0    0    0 -0.00000000000E+00 -0.00000000000E+00 -0.18250000000E+03  0.18250000000E+03  0.00000000000E+00 0. -1.
         23    2    1    2    0    0  0.84917549382E+02 -0.36381404209E+02  0.73830752740E+02  0.14961795187E+03  0.91651266803E+02 0.  0.
        -11    1    1    2    0    0  0.35800635760E+01  0.91803193954E+02 -0.86280276775E+01  0.92277224367E+02  0.00000000000E+00 0. -1.
         11    1    1    2    0    0 -0.88497612958E+02 -0.55421789745E+02 -0.65202725063E+02  0.12310482376E+03  0.00000000000E+00 0. -1.
        -15    1    3    3    0    0  0.31964244662E+02  0.21477036378E+02 -0.44308448591E+01  0.38804202653E+02  0.17770000000E+01 0.  1.
         15    1    3    3    0    0  0.52953304720E+02 -0.57858440587E+02  0.78261597599E+02  0.11081374922E+03  0.17770000000E+01 0. -1.
</event>
<event>
 7    1  0.2537562E-007  0.1683412E+03  0.7546771E-02  0.1080319E+00
        -11   -1    0    0    0    0  0.00000000000E+00  0.00000000000E+00  0.18250000000E+03  0.18250000000E+03  0.00000000000E+00 0. -1.
         11   -1    0    0    0    0 -0.00000000000E+00 -0.00000000000E+00 -0.18250000000E+03  0.18250000000E+03  0.00000000000E+00 0. -1.
         23    2    1    2    0    0  0.27918885452E+02 -0.81681303040E+02  0.10519580269E+03  0.17854430065E+03  0.11558810907E+03 0.  0.
        -11    1    1    2    0    0  0.31186404018E+02  0.58869631514E+02 -0.35905802309E+01  0.66716696385E+02  0.00000000000E+00 0. -1.
         11    1    1    2    0    0 -0.59105289470E+02  0.22811671526E+02 -0.10160522246E+03  0.11973900297E+03  0.00000000000E+00 0. -1.
        -15    1    3    3    0    0 -0.78356351305E+01 -0.18567833370E+02  0.10402644726E+03  0.10597556828E+03  0.17770000000E+01 0. -1.
         15    1    3    3    0    0  0.35754520582E+02 -0.63113469670E+02  0.11693554300E+01  0.72568732364E+02  0.17770000000E+01 0.  1.
</event>
<event>
 7    1  0.2537562E-007  0.1675370E+03  0.7546771E-02  0.1081031E+00
        -11   -1    0    0    0    0  0.00000000000E+00  0.00000000000E+00  0.18250000000E+03  0.18250000000E+03  0.00000000000E+00 0. -1.
         11   -1    0    0    0    0 -0.00000000000E+00 -0.00000000000E+00 -0.18250000000E+03  0.18250000000E+03  0.00000000000E+00 0.  1.
         23    2    1    2    0    0 -0.48671261552E+02  0.66186539541E+02  0.83141213441E+02  0.15079901269E+03  0.95280276757E+02 0.  0.
        -11    1    1    2    0    0 -0.33090095889E+02 -0.11223016068E+02  0.42192136472E+02  0.54782176989E+02  0.00000000000E+00 0. -1.
         11    1    1    2    0    0  0.81761357441E+02 -0.54963523473E+02 -0.12533334991E+03  0.15941881032E+03  0.00000000000E+00 0.  1.
        -15    1    3    3    0    0 -0.51954311032E+02  0.78804652199E+02  0.94381336543E+02  0.13349313862E+03  0.17770000000E+01 0. -1.
         15    1    3    3    0    0  0.32830494801E+01 -0.12618112658E+02 -0.11240123101E+02  0.17305874068E+02  0.17770000000E+01 0.  1.
</event>
<event>
 7    1  0.2537562E-007  0.2127764E+03  0.7546771E-02  0.1046622E+00
        -11   -1    0    0    0    0  0.00000000000E+00  0.00000000000E+00  0.18250000000E+03  0.18250000000E+03  0.00000000000E+00 0. -1.
         11   -1    0    0    0    0 -0.00000000000E+00 -0.00000000000E+00 -0.18250000000E+03  0.18250000000E+03  0.00000000000E+00 0.  1.
         23    2    1    2    0    0 -0.30612134174E+02 -0.31825850054E+02 -0.10704866326E+02  0.10245646801E+03  0.91829985207E+02 0.  0.
        -11    1    1    2    0    0 -0.10318807027E+03 -0.37341507546E+02 -0.11327416792E+02  0.11031988217E+03  0.00000000000E+00 0. -1.
         11    1    1    2    0    0  0.13380020444E+03  0.69167357600E+02  0.22032283118E+02  0.15222364982E+03  0.00000000000E+00 0.  1.
        -15    1    3    3    0    0 -0.54576601470E+02 -0.22795584264E+02  0.19975091651E+02  0.62453231345E+02  0.17770000000E+01 0. -1.
         15    1    3    3    0    0  0.23964467295E+02 -0.90302657902E+01 -0.30679957978E+02  0.40003236663E+02  0.17770000000E+01 0.  1.
</event>
<event>
 7    1  0.3302843E-007  0.1647133E+03  0.7546771E-02  0.1083566E+00
        -11   -1    0    0    0    0  0.00000000000E+00  0.00000000000E+00  0.18250000000E+03  0.18250000000E+03  0.00000000000E+00 0.  1.
         11   -1    0    0    0    0 -0.00000000000E+00 -0.00000000000E+00 -0.18250000000E+03  0.18250000000E+03  0.00000000000E+00 0.  1.
         23    2    1    2    0    0 -0.59408761684E+02 -0.94184630491E+02  0.98912133996E+02  0.17997890496E+03  0.10103786613E+03 0.  0.
        -11    1    1    2    0    0 -0.33212715918E+01  0.63362127944E+02  0.55679964718E+00  0.63451557336E+02  0.00000000000E+00 0.  1.
         11    1    1    2    0    0  0.62730033276E+02  0.30822502547E+02 -0.99468933644E+02  0.12156953771E+03  0.00000000000E+00 0.  1.
        -15    1    3    3    0    0 -0.40509956511E+02 -0.84307404353E+02  0.11849427813E+03  0.15097299985E+03  0.17770000000E+01 0.  1.
         15    1    3    3    0    0 -0.18898805173E+02 -0.98772261377E+01 -0.19582144134E+02  0.29005905106E+02  0.17770000000E+01 0. -1.
</event>
<event>
 7    1  0.2537562E-007  0.1671026E+03  0.7546771E-02  0.1081418E+00
        -11   -1    0    0    0    0  0.00000000000E+00  0.00000000000E+00  0.18250000000E+03  0.18250000000E+03  0.00000000000E+00 0. -1.
         11   -1    0    0    0    0 -0.00000000000E+00 -0.00000000000E+00 -0.18250000000E+03  0.18250000000E+03  0.00000000000E+00 0.  1.
         23    2    1    2    0    0 -0.65120012555E+02 -0.10200572246E+03 -0.81809311723E+02  0.17226792679E+03  0.91310961368E+02 0.  0.
        -11    1    1    2    0    0  0.47645588519E+02  0.63631972844E+02  0.11449260854E+03  0.13938323961E+03  0.00000000000E+00 0. -1.
         11    1    1    2    0    0  0.17474424037E+02  0.38373749620E+02 -0.32683296819E+02  0.53348833598E+02  0.00000000000E+00 0.  1.
        -15    1    3    3    0    0  0.25770383642E+01 -0.10582773044E+02 -0.54040061415E+02  0.55155436529E+02  0.17770000000E+01 0. -1.
         15    1    3    3    0    0 -0.67697050920E+02 -0.91422949419E+02 -0.27769250309E+02  0.11711249026E+03  0.17770000000E+01 0.  1.
</event>
<event>
 7    1  0.2537562E-007  0.1794522E+03  0.7546771E-02  0.1070907E+00
        -11   -1    0    0    0    0  0.00000000000E+00  0.00000000000E+00  0.18250000000E+03  0.18250000000E+03  0.00000000000E+00 0. -1.
         11   -1    0    0    0    0 -0.00000000000E+00 -0.00000000000E+00 -0.18250000000E+03  0.18250000000E+03  0.00000000000E+00 0.  1.
         23    2    1    2    0    0  0.48134586172E+02 -0.32673342298E+02  0.13100384843E+03  0.17053775395E+03  0.92393893399E+02 0.  0.
        -11    1    1    2    0    0  0.26142070747E+02 -0.13133659018E+02  0.80056624442E+01  0.30331361547E+02  0.00000000000E+00 0. -1.
         11    1    1    2    0    0 -0.74276656918E+02  0.45807001315E+02 -0.13900951087E+03  0.16413088450E+03  0.00000000000E+00 0.  1.
        -15    1    3    3    0    0 -0.77222746404E+01 -0.46681151933E+02  0.36205913337E+02  0.59605279640E+02  0.17770000000E+01 0.  1.
         15    1    3    3    0    0  0.55856860812E+02  0.14007809635E+02  0.94797935094E+02  0.11093247432E+03  0.17770000000E+01 0. -1.
</event>
<event>
 7    1  0.2537562E-007  0.1702768E+03  0.7546771E-02  0.1078623E+00
        -11   -1    0    0    0    0  0.00000000000E+00  0.00000000000E+00  0.18250000000E+03  0.18250000000E+03  0.00000000000E+00 0.  1.
         11   -1    0    0    0    0 -0.00000000000E+00 -0.00000000000E+00 -0.18250000000E+03  0.18250000000E+03  0.00000000000E+00 0. -1.
         23    2    1    2    0    0 -0.84593850993E+01 -0.28690107271E+02  0.13177113292E+03  0.16088812541E+03  0.87330830620E+02 0.  0.
        -11    1    1    2    0    0 -0.35018370336E+02  0.19969128255E+02  0.20705119619E+02  0.45318366285E+02  0.00000000000E+00 0.  1.
         11    1    1    2    0    0  0.43477755435E+02  0.87209790159E+01 -0.15247625254E+03  0.15879350831E+03  0.00000000000E+00 0. -1.
        -15    1    3    3    0    0 -0.31526602258E+01  0.86101820986E+01 -0.10294988770E+02  0.13900324638E+02  0.17770000000E+01 0. -1.
         15    1    3    3    0    0 -0.53067248736E+01 -0.37300289369E+02  0.14206612169E+03  0.14698780077E+03  0.17770000000E+01 0.  1.
</event>
<event>
 7    1  0.2537562E-007  0.1543867E+03  0.7546771E-02  0.1093335E+00
        -11   -1    0    0    0    0  0.00000000000E+00  0.00000000000E+00  0.18250000000E+03  0.18250000000E+03  0.00000000000E+00 0.  1.
         11   -1    0    0    0    0 -0.00000000000E+00 -0.00000000000E+00 -0.18250000000E+03  0.18250000000E+03  0.00000000000E+00 0. -1.
         23    2    1    2    0    0  0.24905287926E+02 -0.35292294694E+02 -0.77974397317E+02  0.12926675799E+03  0.93616604576E+02 0.  0.
        -11    1    1    2    0    0  0.61007519877E+00  0.69471195094E+02  0.14241418008E+03  0.15845635938E+03  0.00000000000E+00 0.  1.
         11    1    1    2    0    0 -0.25515363125E+02 -0.34178900400E+02 -0.64439782760E+02  0.77276882637E+02  0.00000000000E+00 0. -1.
        -15    1    3    3    0    0  0.39186992023E+02 -0.59564384911E+02 -0.39422854875E+02  0.81491444393E+02  0.17770000000E+01 0.  1.
         15    1    3    3    0    0 -0.14281704097E+02  0.24272090218E+02 -0.38551542442E+02  0.47775313595E+02  0.17770000000E+01 0. -1.
</event>
<event>
 7    1  0.2537562E-007  0.1704890E+03  0.7546771E-02  0.1078439E+00
        -11   -1    0    0    0    0  0.00000000000E+00  0.00000000000E+00  0.18250000000E+03  0.18250000000E+03  0.00000000000E+00 0. -1.
         11   -1    0    0    0    0 -0.00000000000E+00 -0.00000000000E+00 -0.18250000000E+03  0.18250000000E+03  0.00000000000E+00 0.  1.
         23    2    1    2    0    0  0.68088726435E+02  0.43896592827E+02  0.12578503545E+03  0.17680550099E+03  0.94208940688E+02 0.  0.
        -11    1    1    2    0    0 -0.17687639865E+02 -0.45115282064E+02  0.43317857460E+01  0.48651882260E+02  0.00000000000E+00 0. -1.
         11    1    1    2    0    0 -0.50401086570E+02  0.12186892372E+01 -0.13011682120E+03  0.13954261675E+03  0.00000000000E+00 0.  1.
        -15    1    3    3    0    0  0.18482650637E+02  0.61694154076E+02  0.97781601480E+02  0.11709900230E+03  0.17770000000E+01 0. -1.
         15    1    3    3    0    0  0.49606075799E+02 -0.17797561249E+02  0.28003433975E+02  0.59706498691E+02  0.17770000000E+01 0.  1.
</event>
<event>
 7    1  0.2537562E-007  0.1720212E+03  0.7546771E-02  0.1077116E+00
        -11   -1    0    0    0    0  0.00000000000E+00  0.00000000000E+00  0.18250000000E+03  0.18250000000E+03  0.00000000000E+00 0.  1.
         11   -1    0    0    0    0 -0.00000000000E+00 -0.00000000000E+00 -0.18250000000E+03  0.18250000000E+03  0.00000000000E+00 0. -1.
         23    2    1    2    0    0  0.21551057665E+02 -0.66283451633E+02  0.10497838501E+03  0.15502098681E+03  0.90294523560E+02 0.  0.
        -11    1    1    2    0    0  0.25788830431E+01 -0.36592524441E+02  0.23548531426E+02  0.43591247000E+02  0.00000000000E+00 0.  1.
         11    1    1    2    0    0 -0.24129940708E+02  0.10287597607E+03 -0.12852691643E+03  0.16638776619E+03  0.00000000000E+00 0. -1.
        -15    1    3    3    0    0  0.42469024927E+02 -0.33845145942E+02  0.10285400459E+03  0.11632375497E+03  0.17770000000E+01 0.  1.
         15    1    3    3    0    0 -0.20917967262E+02 -0.32438305690E+02  0.21243804184E+01  0.38697231833E+02  0.17770000000E+01 0. -1.
</event>
<event>
 7    1  0.2537562E-007  0.1735569E+03  0.7546771E-02  0.1075805E+00
        -11   -1    0    0    0    0  0.00000000000E+00  0.00000000000E+00  0.18250000000E+03  0.18250000000E+03  0.00000000000E+00 0.  1.
         11   -1    0    0    0    0 -0.00000000000E+00 -0.00000000000E+00 -0.18250000000E+03  0.18250000000E+03  0.00000000000E+00 0.  1.
         23    2    1    2    0    0 -0.19508023639E+02 -0.35082322077E+02  0.14084317012E+03  0.17595790243E+03  0.97534878625E+02 0.  0.
        -11    1    1    2    0    0  0.39314664164E+02  0.69485507260E+02 -0.12020029640E+03  0.14429826677E+03  0.00000000000E+00 0.  1.
         11    1    1    2    0    0 -0.19806640525E+02 -0.34403185182E+02 -0.20642873717E+02  0.44743830802E+02  0.00000000000E+00 0.  1.
        -15    1    3    3    0    0 -0.14084470325E+02  0.28438080278E+01  0.13660635796E+03  0.13737144649E+03  0.17770000000E+01 0. -1.
         15    1    3    3    0    0 -0.54235533143E+01 -0.37926130105E+02  0.42368121644E+01  0.38586455935E+02  0.17770000000E+01 0.  1.
</event>
<event>
 7    1  0.2537562E-007  0.1382439E+03  0.7546771E-02  0.1110419E+00
        -11   -1    0    0    0    0  0.00000000000E+00  0.00000000000E+00  0.18250000000E+03  0.18250000000E+03  0.00000000000E+00 0.  1.
         11   -1    0    0    0    0 -0.00000000000E+00 -0.00000000000E+00 -0.18250000000E+03  0.18250000000E+03  0.00000000000E+00 0. -1.
         23    2    1    2    0    0  0.56302278810E+02  0.29223099585E+02  0.48327980060E+02  0.12254168085E+03  0.93042644746E+02 0.  0.
        -11    1    1    2    0    0 -0.36043277751E+01 -0.73204979550E+02  0.72755157786E+02  0.10327280956E+03  0.00000000000E+00 0.  1.
         11    1    1    2    0    0 -0.52697951035E+02  0.43981879965E+02 -0.12108313785E+03  0.13918550959E+03  0.00000000000E+00 0. -1.
        -15    1    3    3    0    0  0.48315143447E+02 -0.14166297038E+02  0.58527518078E+02  0.77224770375E+02  0.17770000000E+01 0.  1.
         15    1    3    3    0    0  0.79871353633E+01  0.43389396623E+02 -0.10199538019E+02  0.45316910479E+02  0.17770000000E+01 0. -1.
</event>
<event>
 7    1  0.2537562E-007  0.1748660E+03  0.7546771E-02  0.1074699E+00
        -11   -1    0    0    0    0  0.00000000000E+00  0.00000000000E+00  0.18250000000E+03  0.18250000000E+03  0.00000000000E+00 0. -1.
         11   -1    0    0    0    0 -0.00000000000E+00 -0.00000000000E+00 -0.18250000000E+03  0.18250000000E+03  0.00000000000E+00 0.  1.
         23    2    1    2    0    0  0.45760770812E+02 -0.36737101856E+02 -0.12010627858E+03  0.15949056921E+03  0.86994601648E+02 0.  0.
        -11    1    1    2    0    0 -0.58914491415E+02  0.55333320231E+02  0.14852258968E+03  0.16909066584E+03  0.00000000000E+00 0. -1.
         11    1    1    2    0    0  0.13153720603E+02 -0.18596218376E+02 -0.28416311104E+02  0.36418764948E+02  0.00000000000E+00 0.  1.
        -15    1    3    3    0    0  0.30557504385E+02 -0.47304253087E+02 -0.12756241450E+03  0.13945171478E+03  0.17770000000E+01 0.  1.
         15    1    3    3    0    0  0.15203266427E+02  0.10567151231E+02  0.74561359160E+01  0.20038854433E+02  0.17770000000E+01 0. -1.
</event>
<event>
 7    1  0.2537562E-007  0.1395644E+03  0.7546771E-02  0.1108927E+00
        -11   -1    0    0    0    0  0.00000000000E+00  0.00000000000E+00  0.18250000000E+03  0.18250000000E+03  0.00000000000E+00 0.  1.
         11   -1    0    0    0    0 -0.00000000000E+00 -0.00000000000E+00 -0.18250000000E+03  0.18250000000E+03  0.00000000000E+00 0. -1.
         23    2    1    2    0    0 -0.88188727263E+02 -0.54408880700E+02  0.36016135082E+02  0.14221395278E+03  0.90498997033E+02 0.  0.
        -11    1    1    2    0    0  0.39043332862E+02  0.50343032019E+02  0.76727647434E+02  0.99729306598E+02  0.00000000000E+00 0.  1.
         11    1    1    2    0    0  0.49145394401E+02  0.40658486808E+01 -0.11274378252E+03  0.12305674062E+03  0.00000000000E+00 0. -1.
        -15    1    3    3    0    0 -0.53027808659E+01  0.17647939358E+02  0.25997249044E+02  0.31915261794E+02  0.17770000000E+01 0. -1.
         15    1    3    3    0    0 -0.82885946397E+02 -0.72056820058E+02  0.10018886038E+02  0.11029869099E+03  0.17770000000E+01 0.  1.
</event>
<event>
 7    1  0.2537562E-007  0.1615423E+03  0.7546771E-02  0.1086480E+00
        -11   -1    0    0    0    0  0.00000000000E+00  0.00000000000E+00  0.18250000000E+03  0.18250000000E+03  0.00000000000E+00 0. -1.
         11   -1    0    0    0    0 -0.00000000000E+00 -0.00000000000E+00 -0.18250000000E+03  0.18250000000E+03  0.00000000000E+00 0. -1.
         23    2    1    2    0    0 -0.10836914196E+03 -0.13438268771E+02  0.84326308109E+02  0.16272731293E+03  0.86283220480E+02 0.  0.
        -11    1    1    2    0    0  0.13006264326E+03  0.42794234845E+02 -0.35753018431E+02  0.14151295359E+03  0.00000000000E+00 0. -1.
         11    1    1    2    0    0 -0.21693501293E+02 -0.29355966073E+02 -0.48573289678E+02  0.60759733480E+02  0.00000000000E+00 0. -1.
        -15    1    3    3    0    0 -0.12314352693E+03 -0.12749581107E+02  0.79174894276E+02  0.14696496744E+03  0.17770000000E+01 0. -1.
         15    1    3    3    0    0  0.14774384964E+02 -0.68868766429E+00  0.51514138331E+01  0.15762345487E+02  0.17770000000E+01 0.  1.
</event>
<event>
 7    1  0.2537562E-007  0.1649990E+03  0.7546771E-02  0.1083307E+00
        -11   -1    0    0    0    0  0.00000000000E+00  0.00000000000E+00  0.18250000000E+03  0.18250000000E+03  0.00000000000E+00 0.  1.
         11   -1    0    0    0    0 -0.00000000000E+00 -0.00000000000E+00 -0.18250000000E+03  0.18250000000E+03  0.00000000000E+00 0.  1.
         23    2    1    2    0    0 -0.27968344150E+02  0.11401108487E+02  0.12978067231E+03  0.16251291277E+03  0.93033383054E+02 0.  0.
        -11    1    1    2    0    0 -0.11062454318E+02 -0.57087532112E+02  0.14350888287E+01  0.58167204662E+02  0.00000000000E+00 0.  1.
         11    1    1    2    0    0  0.39030798468E+02  0.45686423625E+02 -0.13121576114E+03  0.14431988257E+03  0.00000000000E+00 0.  1.
        -15    1    3    3    0    0 -0.51607234268E+02 -0.55463755871E+00  0.12538322875E+03  0.13560134967E+03  0.17770000000E+01 0.  1.
         15    1    3    3    0    0  0.23638890118E+02  0.11955746046E+02  0.43974435587E+01  0.26911563098E+02  0.17770000000E+01 0. -1.
</event>
<event>
 7    1  0.2537562E-007  0.1772726E+03  0.7546771E-02  0.1072694E+00
        -11   -1    0    0    0    0  0.00000000000E+00  0.00000000000E+00  0.18250000000E+03  0.18250000000E+03  0.00000000000E+00 0. -1.
         11   -1    0    0    0    0 -0.00000000000E+00 -0.00000000000E+00 -0.18250000000E+03  0.18250000000E+03  0.00000000000E+00 0.  1.
         23    2    1    2    0    0  0.77467609636E+02  0.44989992424E+02  0.13912448557E+03  0.17863680297E+03  0.67306425611E+02 0.  0.
        -11    1    1    2    0    0 -0.94674036149E+02 -0.33818135777E+02 -0.12881945363E+03  0.16340529692E+03  0.00000000000E+00 0.  1.
         11    1    1    2    0    0  0.17206426513E+02 -0.11171856646E+02 -0.10305031936E+02  0.22957900111E+02  0.00000000000E+00 0. -1.
        -15    1    3    3    0    0 -0.12073037086E+02  0.50924606832E+01  0.24169868170E+02  0.27550528790E+02  0.17770000000E+01 0.  1.
         15    1    3    3    0    0  0.89540646722E+02  0.39897531741E+02  0.11495461740E+03  0.15108627418E+03  0.17770000000E+01 0. -1.
</event>
<event>
 7    1  0.2537562E-007  0.1523868E+03  0.7546771E-02  0.1095324E+00
        -11   -1    0    0    0    0  0.00000000000E+00  0.00000000000E+00  0.18250000000E+03  0.18250000000E+03  0.00000000000E+00 0.  1.
         11   -1    0    0    0    0 -0.00000000000E+00 -0.00000000000E+00 -0.18250000000E+03  0.18250000000E+03  0.00000000000E+00 0.  1.
         23    2    1    2    0    0  0.26619024437E+01 -0.45694388717E+02 -0.80426232946E+02  0.12942466636E+03  0.90483713633E+02 0.  0.
        -11    1    1    2    0    0 -0.50726796986E+02  0.39984965483E+02  0.14273850232E+03  0.15667254208E+03  0.00000000000E+00 0.  1.
         11    1    1    2    0    0  0.48064894542E+02  0.57094232336E+01 -0.62312269373E+02  0.78902791556E+02  0.00000000000E+00 0.  1.
        -15    1    3    3    0    0 -0.81039984092E+01 -0.16443199723E+02 -0.93705098342E+02  0.95497941295E+02  0.17770000000E+01 0.  1.
         15    1    3    3    0    0  0.10765900853E+02 -0.29251188994E+02  0.13278865396E+02  0.33926725069E+02  0.17770000000E+01 0. -1.
</event>
<event>
 7    1  0.2537562E-007  0.1671081E+03  0.7546771E-02  0.1081413E+00
        -11   -1    0    0    0    0  0.00000000000E+00  0.00000000000E+00  0.18250000000E+03  0.18250000000E+03  0.00000000000E+00 0.  1.
         11   -1    0    0    0    0 -0.00000000000E+00 -0.00000000000E+00 -0.18250000000E+03  0.18250000000E+03  0.00000000000E+00 0.  1.
         23    2    1    2    0    0 -0.74474771493E+01  0.35412329146E+02  0.14131284462E+03  0.17214409743E+03  0.91404443287E+02 0.  0.
        -11    1    1    2    0    0  0.43569232940E+02 -0.30119567986E+02 -0.67099072123E+01  0.53389973679E+02  0.00000000000E+00 0.  1.
         11    1    1    2    0    0 -0.36121755791E+02 -0.52927611603E+01 -0.13460293741E+03  0.13946592889E+03  0.00000000000E+00 0.  1.
        -15    1    3    3    0    0  0.18885298476E+02  0.23116345919E+02  0.13982821384E+03  0.14298988447E+03  0.17770000000E+01 0.  1.
         15    1    3    3    0    0 -0.26332775625E+02  0.12295983228E+02  0.14846307868E+01  0.29154212959E+02  0.17770000000E+01 0. -1.
</event>
<event>
 7    1  0.2537562E-007  0.1723468E+03  0.7546771E-02  0.1076837E+00
        -11   -1    0    0    0    0  0.00000000000E+00  0.00000000000E+00  0.18250000000E+03  0.18250000000E+03  0.00000000000E+00 0.  1.
         11   -1    0    0    0    0 -0.00000000000E+00 -0.00000000000E+00 -0.18250000000E+03  0.18250000000E+03  0.00000000000E+00 0.  1.
         23    2    1    2    0    0  0.77422070771E+02  0.19666638070E+01  0.11058995545E+03  0.16277275023E+03  0.90921862943E+02 0.  0.
        -11    1    1    2    0    0 -0.10735694697E+03 -0.33218169432E+02 -0.11236203374E+03  0.15891566150E+03  0.00000000000E+00 0.  1.
         11    1    1    2    0    0  0.29934876203E+02  0.31251505625E+02  0.17720782903E+01  0.43311588271E+02  0.00000000000E+00 0.  1.
        -15    1    3    3    0    0 -0.14028205917E+02 -0.53428849128E+01 -0.43203575160E+01  0.15721329412E+02  0.17770000000E+01 0. -1.
         15    1    3    3    0    0  0.91450276687E+02  0.73095487198E+01  0.11491031297E+03  0.14705142082E+03  0.17770000000E+01 0.  1.
</event>
<event>
 7    1  0.2537562E-007  0.1263714E+03  0.7546771E-02  0.1124716E+00
        -11   -1    0    0    0    0  0.00000000000E+00  0.00000000000E+00  0.18250000000E+03  0.18250000000E+03  0.00000000000E+00 0. -1.
         11   -1    0    0    0    0 -0.00000000000E+00 -0.00000000000E+00 -0.18250000000E+03  0.18250000000E+03  0.00000000000E+00 0. -1.
         23    2    1    2    0    0 -0.14539271945E+02 -0.10385516782E+02 -0.49224609145E+02  0.10688909643E+03  0.93182441497E+02 0.  0.
        -11    1    1    2    0    0  0.48451026219E+02 -0.73746326371E+02  0.11580353690E+03  0.14559011557E+03  0.00000000000E+00 0. -1.
         11    1    1    2    0    0 -0.33911754274E+02  0.84131843153E+02 -0.66578927751E+02  0.11252078799E+03  0.00000000000E+00 0. -1.
        -15    1    3    3    0    0 -0.46627952872E+02  0.82428564015E+01 -0.28479011108E+01  0.47469768700E+02  0.17770000000E+01 0. -1.
         15    1    3    3    0    0  0.32088680928E+02 -0.18628373184E+02 -0.46376708035E+02  0.59419327733E+02  0.17770000000E+01 0.  1.
</event>
<event>
 7    1  0.2537562E-007  0.1630167E+03  0.7546771E-02  0.1085116E+00
        -11   -1    0    0    0    0  0.00000000000E+00  0.00000000000E+00  0.18250000000E+03  0.18250000000E+03  0.00000000000E+00 0.  1.
         11   -1    0    0    0    0 -0.00000000000E+00 -0.00000000000E+00 -0.18250000000E+03  0.18250000000E+03  0.00000000000E+00 0. -1.
         23    2    1    2    0    0 -0.69233681685E+01  0.11320563272E+02  0.11005980918E+03  0.14608606130E+03  0.95141408073E+02 0.  0.
        -11    1    1    2    0    0 -0.17469820900E+02 -0.45229365599E+02  0.40182853824E+02  0.62972628151E+02  0.00000000000E+00 0.  1.
         11    1    1    2    0    0  0.24393189069E+02  0.33908802327E+02 -0.15024266301E+03  0.15594131055E+03  0.00000000000E+00 0. -1.
        -15    1    3    3    0    0  0.47439659822E+01 -0.40229471572E+02  0.64995074612E+02  0.76605698541E+02  0.17770000000E+01 0.  1.
         15    1    3    3    0    0 -0.11667334151E+02  0.51550034843E+02  0.45064734569E+02  0.69480362761E+02  0.17770000000E+01 0. -1.
</event>
<event>
 7    1  0.2537562E-007  0.1755308E+03  0.7546771E-02  0.1074142E+00
        -11   -1    0    0    0    0  0.00000000000E+00  0.00000000000E+00  0.18250000000E+03  0.18250000000E+03  0.00000000000E+00 0. -1.
         11   -1    0    0    0    0 -0.00000000000E+00 -0.00000000000E+00 -0.18250000000E+03  0.18250000000E+03  0.00000000000E+00 0.  1.
         23    2    1    2    0    0 -0.47099592930E+02 -0.72698437238E+02 -0.10069106303E+03  0.16174806635E+03  0.92305538095E+02 0.  0.
        -11    1    1    2    0    0  0.78061093245E+02  0.81352237883E+02  0.12087315779E+03  0.16529380255E+03  0.00000000000E+00 0. -1.
         11    1    1    2    0    0 -0.30961500315E+02 -0.86538006449E+01 -0.20182094766E+02  0.37958131099E+02  0.00000000000E+00 0.  1.
        -15    1    3    3    0    0 -0.64748369385E+02 -0.74863525459E+02 -0.56275855459E+02  0.11387286076E+03  0.17770000000E+01 0. -1.
         15    1    3    3    0    0  0.17648776454E+02  0.21650882213E+01 -0.44415207569E+02  0.47875205584E+02  0.17770000000E+01 0.  1.
</event>
<event>
 7    1  0.2537562E-007  0.1498670E+03  0.7546771E-02  0.1097878E+00
        -11   -1    0    0    0    0  0.00000000000E+00  0.00000000000E+00  0.18250000000E+03  0.18250000000E+03  0.00000000000E+00 0. -1.
         11   -1    0    0    0    0 -0.00000000000E+00 -0.00000000000E+00 -0.18250000000E+03  0.18250000000E+03  0.00000000000E+00 0.  1.
         23    2    1    2    0    0 -0.94772415025E+01  0.36852825267E+01  0.14183505555E+03  0.16880747559E+03  0.90969123422E+02 0.  0.
        -11    1    1    2    0    0 -0.56073729722E+02 -0.30067091066E+02 -0.53918922419E+02  0.83399900030E+02  0.00000000000E+00 0. -1.
         11    1    1    2    0    0  0.65550971224E+02  0.26381808540E+02 -0.87916133134E+02  0.11279262438E+03  0.00000000000E+00 0.  1.
        -15    1    3    3    0    0 -0.47759621578E+02 -0.13292414307E+02  0.75453514931E+02  0.90299835968E+02  0.17770000000E+01 0. -1.
         15    1    3    3    0    0  0.38282380076E+02  0.16977696833E+02  0.66381540622E+02  0.78507639618E+02  0.17770000000E+01 0.  1.
</event>
<event>
 7    1  0.2537562E-007  0.1407639E+03  0.7546771E-02  0.1107587E+00
        -11   -1    0    0    0    0  0.00000000000E+00  0.00000000000E+00  0.18250000000E+03  0.18250000000E+03  0.00000000000E+00 0.  1.
         11   -1    0    0    0    0 -0.00000000000E+00 -0.00000000000E+00 -0.18250000000E+03  0.18250000000E+03  0.00000000000E+00 0.  1.
         23    2    1    2    0    0  0.75871130784E+01 -0.64294982151E+02  0.10428299794E+03  0.15333721282E+03  0.91901839813E+02 0.  0.
        -11    1    1    2    0    0  0.50032952201E+02  0.84536587901E+02 -0.92094642742E+01  0.98663798994E+02  0.00000000000E+00 0.  1.
         11    1    1    2    0    0 -0.57620065279E+02 -0.20241605749E+02 -0.95073533670E+02  0.11299898818E+03  0.00000000000E+00 0.  1.
        -15    1    3    3    0    0  0.24156430053E+02 -0.57748977289E+02  0.11608103680E+03  0.13189557356E+03  0.17770000000E+01 0.  1.
         15    1    3    3    0    0 -0.16569316975E+02 -0.65460048623E+01 -0.11798038852E+02  0.21441639266E+02  0.17770000000E+01 0. -1.
</event>
<event>
 7    1  0.2537562E-007  0.1712169E+03  0.7546771E-02  0.1077809E+00
        -11   -1    0    0    0    0  0.00000000000E+00  0.00000000000E+00  0.18250000000E+03  0.18250000000E+03  0.00000000000E+00 0. -1.
         11   -1    0    0    0    0 -0.00000000000E+00 -0.00000000000E+00 -0.18250000000E+03  0.18250000000E+03  0.00000000000E+00 0.  1.
         23    2    1    2    0    0 -0.38262179180E+02 -0.59225013710E+02  0.10695600965E+03  0.15774910374E+03  0.92052132652E+02 0.  0.
        -11    1    1    2    0    0  0.38824019093E+00  0.15344405145E+02  0.43439525613E+02  0.46071616915E+02  0.00000000000E+00 0. -1.
         11    1    1    2    0    0  0.37873938989E+02  0.43880608566E+02 -0.15039553526E+03  0.16117927934E+03  0.00000000000E+00 0.  1.
        -15    1    3    3    0    0 -0.14328216254E+02 -0.20376817083E+02 -0.13880993071E+02  0.28571876961E+02  0.17770000000E+01 0.  1.
         15    1    3    3    0    0 -0.23933962926E+02 -0.38848196627E+02  0.12083700272E+03  0.12917722678E+03  0.17770000000E+01 0. -1.
</event>
<event>
 7    1  0.2537562E-007  0.1581779E+03  0.7546771E-02  0.1089653E+00
        -11   -1    0    0    0    0  0.00000000000E+00  0.00000000000E+00  0.18250000000E+03  0.18250000000E+03  0.00000000000E+00 0.  1.
         11   -1    0    0    0    0 -0.00000000000E+00 -0.00000000000E+00 -0.18250000000E+03  0.18250000000E+03  0.00000000000E+00 0. -1.
         23    2    1    2    0    0  0.31903978470E+02  0.17282063526E+02  0.10161734162E+03  0.14131527295E+03  0.91254526952E+02 0.  0.
        -11    1    1    2    0    0 -0.15111465184E+01  0.64400593951E+02  0.25732427995E+02  0.69367700809E+02  0.00000000000E+00 0.  1.
         11    1    1    2    0    0 -0.30392831952E+02 -0.81682657476E+02 -0.12734976962E+03  0.15431702624E+03  0.00000000000E+00 0. -1.
        -15    1    3    3    0    0  0.53374785183E+02  0.22751582700E+02  0.10385323934E+03  0.11897543973E+03  0.17770000000E+01 0.  1.
         15    1    3    3    0    0 -0.21470806713E+02 -0.54695191739E+01 -0.22358977154E+01  0.22339833224E+02  0.17770000000E+01 0. -1.
</event>
<event>
 7    1  0.2537562E-007  0.1520833E+03  0.7546771E-02  0.1095628E+00
        -11   -1    0    0    0    0  0.00000000000E+00  0.00000000000E+00  0.18250000000E+03  0.18250000000E+03  0.00000000000E+00 0.  1.
         11   -1    0    0    0    0 -0.00000000000E+00 -0.00000000000E+00 -0.18250000000E+03  0.18250000000E+03  0.00000000000E+00 0. -1.
         23    2    1    2    0    0  0.11264617305E+02 -0.29655704206E+01  0.11250270299E+03  0.14605991971E+03  0.92417291425E+02 0.  0.
        -11    1    1    2    0    0 -0.80345924206E+02 -0.37887087899E+02 -0.10617490254E+03  0.13843413198E+03  0.00000000000E+00 0. -1.
         11    1    1    2    0    0  0.69081306901E+02  0.40852658320E+02 -0.63278004490E+01  0.80505948311E+02  0.00000000000E+00 0.  1.
        -15    1    3    3    0    0  0.39936679082E+02  0.26797952440E+02  0.39969135326E+02  0.62560035956E+02  0.17770000000E+01 0.  1.
         15    1    3    3    0    0 -0.28672061778E+02 -0.29763522860E+02  0.72533567667E+02  0.83499883755E+02  0.17770000000E+01 0. -1.
</event>
<event>
 7    1  0.2537562E-007  0.1806821E+03  0.7546771E-02  0.1069911E+00
        -11   -1    0    0    0    0  0.00000000000E+00  0.00000000000E+00  0.18250000000E+03  0.18250000000E+03  0.00000000000E+00 0. -1.
         11   -1    0    0    0    0 -0.00000000000E+00 -0.00000000000E+00 -0.18250000000E+03  0.18250000000E+03  0.00000000000E+00 0.  1.
         23    2    1    2    0    0  0.89087428395E+01 -0.47156269222E+02  0.14014420158E+03  0.17380044034E+03  0.90901685348E+02 0.  0.
        -11    1    1    2    0    0  0.21761141885E+02 -0.13091678762E+02  0.94035552966E+01  0.27080734871E+02  0.00000000000E+00 0. -1.
         11    1    1    2    0    0 -0.30669884724E+02  0.60247947983E+02 -0.14954775687E+03  0.16411882479E+03  0.00000000000E+00 0.  1.
        -15    1    3    3    0    0  0.30503037829E+02 -0.26697710586E+02  0.13809247180E+03  0.14393016210E+03  0.17770000000E+01 0. -1.
         15    1    3    3    0    0 -0.21594294990E+02 -0.20458558636E+02  0.20517297820E+01  0.29870278232E+02  0.17770000000E+01 0.  1.
</event>
<event>
 7    1  0.2537562E-007  0.1567625E+03  0.7546771E-02  0.1091014E+00
        -11   -1    0    0    0    0  0.00000000000E+00  0.00000000000E+00  0.18250000000E+03  0.18250000000E+03  0.00000000000E+00 0. -1.
         11   -1    0    0    0    0 -0.00000000000E+00 -0.00000000000E+00 -0.18250000000E+03  0.18250000000E+03  0.00000000000E+00 0.  1.
         23    2    1    2    0    0  0.31215721671E+02  0.44930707993E+02  0.84666845897E+02  0.13628899741E+03  0.91722550227E+02 0.  0.
        -11    1    1    2    0    0  0.42255591050E+02  0.57888119464E+02  0.78425524790E+01  0.72097676658E+02  0.00000000000E+00 0. -1.
         11    1    1    2    0    0 -0.73471312721E+02 -0.10281882746E+03 -0.92509398376E+02  0.15661332593E+03  0.00000000000E+00 0.  1.
        -15    1    3    3    0    0  0.23040500369E+01  0.52628976646E+02  0.91456005722E+02  0.10555792979E+03  0.17770000000E+01 0. -1.
         15    1    3    3    0    0  0.28911671634E+02 -0.76982686534E+01 -0.67891598254E+01  0.30731067620E+02  0.17770000000E+01 0.  1.
</event>
<event>
 7    1  0.2537562E-007  0.1570463E+03  0.7546771E-02  0.1090740E+00
        -11   -1    0    0    0    0  0.00000000000E+00  0.00000000000E+00  0.18250000000E+03  0.18250000000E+03  0.00000000000E+00 0.  1.
         11   -1    0    0    0    0 -0.00000000000E+00 -0.00000000000E+00 -0.18250000000E+03  0.18250000000E+03  0.00000000000E+00 0. -1.
         23    2    1    2    0    0  0.12355345224E+03  0.50303448779E+02  0.88599618387E+01  0.16199000605E+03  0.91467866589E+02 0.  0.
        -11    1    1    2    0    0 -0.12737354953E+03  0.83379818429E+01  0.31801934938E+02  0.13154811335E+03  0.00000000000E+00 0. -1.
         11    1    1    2    0    0  0.38200972926E+01 -0.58641430622E+02 -0.40661896777E+02  0.71461880595E+02  0.00000000000E+00 0.  1.
        -15    1    3    3    0    0  0.21937437039E+02 -0.20611796324E+02 -0.18093279381E+02  0.35165633497E+02  0.17770000000E+01 0. -1.
         15    1    3    3    0    0  0.10161601520E+03  0.70915245103E+02  0.26953241220E+02  0.12682437255E+03  0.17770000000E+01 0.  1.
</event>
<event>
 7    1  0.2537562E-007  0.1603273E+03  0.7546771E-02  0.1087616E+00
        -11   -1    0    0    0    0  0.00000000000E+00  0.00000000000E+00  0.18250000000E+03  0.18250000000E+03  0.00000000000E+00 0.  1.
         11   -1    0    0    0    0 -0.00000000000E+00 -0.00000000000E+00 -0.18250000000E+03  0.18250000000E+03  0.00000000000E+00 0. -1.
         23    2    1    2    0    0  0.48022320316E+02 -0.41321286412E+02  0.10505063079E+03  0.15298764662E+03  0.91411120929E+02 0.  0.
        -11    1    1    2    0    0 -0.56628646317E+02 -0.13822149858E+02  0.30235529517E+02  0.65666145429E+02  0.00000000000E+00 0.  1.
         11    1    1    2    0    0  0.86063260012E+01  0.55143436270E+02 -0.13528616031E+03  0.14634620795E+03  0.00000000000E+00 0. -1.
        -15    1    3    3    0    0  0.57362651671E+02 -0.32586051580E+02  0.22941898006E+02  0.69869971929E+02  0.17770000000E+01 0.  1.
         15    1    3    3    0    0 -0.93403313551E+01 -0.87352348321E+01  0.82108732785E+02  0.83117674691E+02  0.17770000000E+01 0. -1.
</event>
<event>
 7    1  0.2537562E-007  0.2042933E+03  0.7546771E-02  0.1052320E+00
        -11   -1    0    0    0    0  0.00000000000E+00  0.00000000000E+00  0.18250000000E+03  0.18250000000E+03  0.00000000000E+00 0.  1.
         11   -1    0    0    0    0 -0.00000000000E+00 -0.00000000000E+00 -0.18250000000E+03  0.18250000000E+03  0.00000000000E+00 0. -1.
         23    2    1    2    0    0 -0.35222186443E+02  0.18624762934E+02 -0.59236776153E+02  0.11265250208E+03  0.87144169998E+02 0.  0.
        -11    1    1    2    0    0  0.10377734370E+03 -0.30101277851E+02  0.11895715734E+03  0.16070665598E+03  0.00000000000E+00 0.  1.
         11    1    1    2    0    0 -0.68555157259E+02  0.11476514917E+02 -0.59720381187E+02  0.91640841935E+02  0.00000000000E+00 0. -1.
        -15    1    3    3    0    0  0.14125330276E+02  0.31607333454E+02 -0.49882367831E+02  0.60745014881E+02  0.17770000000E+01 0. -1.
         15    1    3    3    0    0 -0.49347516720E+02 -0.12982570520E+02 -0.93544083224E+01  0.51907487203E+02  0.17770000000E+01 0.  1.
</event>
<event>
 7    1  0.2537562E-007  0.1616316E+03  0.7546771E-02  0.1086397E+00
        -11   -1    0    0    0    0  0.00000000000E+00  0.00000000000E+00  0.18250000000E+03  0.18250000000E+03  0.00000000000E+00 0. -1.
         11   -1    0    0    0    0 -0.00000000000E+00 -0.00000000000E+00 -0.18250000000E+03  0.18250000000E+03  0.00000000000E+00 0. -1.
         23    2    1    2    0    0 -0.55195996712E+02  0.38090215767E+02  0.12511199429E+03  0.16587039896E+03  0.85805102102E+02 0.  0.
        -11    1    1    2    0    0 -0.86409447988E+01  0.47389819313E+02 -0.36362190400E+02  0.60354534148E+02  0.00000000000E+00 0. -1.
         11    1    1    2    0    0  0.63836941511E+02 -0.85480035080E+02 -0.88749803892E+02  0.13877506689E+03  0.00000000000E+00 0. -1.
        -15    1    3    3    0    0 -0.80592533905E+01 -0.13609868036E+02 -0.61928927989E+01  0.17078926295E+02  0.17770000000E+01 0.  1.
         15    1    3    3    0    0 -0.47136743322E+02  0.51700083803E+02  0.13130488709E+03  0.14879147267E+03  0.17770000000E+01 0. -1.
</event>
<event>
 7    1  0.2537562E-007  0.2133238E+03  0.7546771E-02  0.1046264E+00
        -11   -1    0    0    0    0  0.00000000000E+00  0.00000000000E+00  0.18250000000E+03  0.18250000000E+03  0.00000000000E+00 0.  1.
         11   -1    0    0    0    0 -0.00000000000E+00 -0.00000000000E+00 -0.18250000000E+03  0.18250000000E+03  0.00000000000E+00 0. -1.
         23    2    1    2    0    0 -0.10087386693E+02 -0.17313552861E+02  0.55489544243E+02  0.10912269785E+03  0.91799559820E+02 0.  0.
        -11    1    1    2    0    0  0.54265385739E+02  0.30189939063E+01  0.88904534271E+02  0.10420106826E+03  0.00000000000E+00 0.  1.
         11    1    1    2    0    0 -0.44177999046E+02  0.14294558955E+02 -0.14439407851E+03  0.15167623388E+03  0.00000000000E+00 0. -1.
        -15    1    3    3    0    0 -0.95532253162E+01 -0.36122701873E+02  0.73843122911E+02  0.82777280910E+02  0.17770000000E+01 0.  1.
         15    1    3    3    0    0 -0.53416137703E+00  0.18809149012E+02 -0.18353578668E+02  0.26345416942E+02  0.17770000000E+01 0. -1.
</event>
<event>
 7    1  0.2537562E-007  0.1348749E+03  0.7546771E-02  0.1114310E+00
        -11   -1    0    0    0    0  0.00000000000E+00  0.00000000000E+00  0.18250000000E+03  0.18250000000E+03  0.00000000000E+00 0.  1.
         11   -1    0    0    0    0 -0.00000000000E+00 -0.00000000000E+00 -0.18250000000E+03  0.18250000000E+03  0.00000000000E+00 0. -1.
         23    2    1    2    0    0 -0.44566792395E+01 -0.21219313759E+02 -0.10152167939E+02  0.94189863249E+02  0.91096336693E+02 0.  0.
        -11    1    1    2    0    0 -0.51383702981E+02  0.16674600594E+02  0.12876153606E+03  0.13963473925E+03  0.00000000000E+00 0.  1.
         11    1    1    2    0    0  0.55840382221E+02  0.45447131647E+01 -0.11860936812E+03  0.13117539750E+03  0.00000000000E+00 0. -1.
        -15    1    3    3    0    0  0.15240737160E+02 -0.44699657098E+02 -0.31501472387E+02  0.56796477931E+02  0.17770000000E+01 0.  1.
         15    1    3    3    0    0 -0.19697416400E+02  0.23480343339E+02  0.21349304447E+02  0.37393385318E+02  0.17770000000E+01 0. -1.
</event>
<event>
 7    1  0.2537562E-007  0.2067412E+03  0.7546771E-02  0.1050645E+00
        -11   -1    0    0    0    0  0.00000000000E+00  0.00000000000E+00  0.18250000000E+03  0.18250000000E+03  0.00000000000E+00 0. -1.
         11   -1    0    0    0    0 -0.00000000000E+00 -0.00000000000E+00 -0.18250000000E+03  0.18250000000E+03  0.00000000000E+00 0.  1.
         23    2    1    2    0    0 -0.27103174796E+02 -0.24413739934E+02 -0.54673217953E+02  0.11263335285E+03  0.91468566360E+02 0.  0.
        -11    1    1    2    0    0  0.85402740047E+02  0.42237618703E+02  0.12636533678E+03  0.15825878422E+03  0.00000000000E+00 0. -1.
         11    1    1    2    0    0 -0.58299565251E+02 -0.17823878769E+02 -0.71692118831E+02  0.94107862931E+02  0.00000000000E+00 0.  1.
        -15    1    3    3    0    0  0.18798136751E+02 -0.37623292199E+02 -0.29377327124E+01  0.42197986488E+02  0.17770000000E+01 0. -1.
         15    1    3    3    0    0 -0.45901311547E+02  0.13209552265E+02 -0.51735485240E+02  0.70435366364E+02  0.17770000000E+01 0.  1.
</event>
<event>
 7    1  0.2537562E-007  0.1828703E+03  0.7546771E-02  0.1068160E+00
        -11   -1    0    0    0    0  0.00000000000E+00  0.00000000000E+00  0.18250000000E+03  0.18250000000E+03  0.00000000000E+00 0. -1.
         11   -1    0    0    0    0 -0.00000000000E+00 -0.00000000000E+00 -0.18250000000E+03  0.18250000000E+03  0.00000000000E+00 0.  1.
         23    2    1    2    0    0 -0.11409092453E+03 -0.58967543151E+02  0.94417209527E+02  0.18299148082E+03  0.89874147529E+02 0.  0.
        -11    1    1    2    0    0  0.12146075863E+03  0.70092773352E+02 -0.76736142083E+02  0.15985664911E+03  0.00000000000E+00 0.  1.
         11    1    1    2    0    0 -0.73698340995E+01 -0.11125230201E+02 -0.17681067444E+02  0.22151870071E+02  0.00000000000E+00 0. -1.
        -15    1    3    3    0    0 -0.72030796203E+02  0.91273173073E+01  0.65712246436E+02  0.97943864450E+02  0.17770000000E+01 0.  1.
         15    1    3    3    0    0 -0.42060128323E+02 -0.68094860459E+02  0.28704963091E+02  0.85047616372E+02  0.17770000000E+01 0. -1.
</event>
<event>
 7    1  0.2537562E-007  0.1775045E+03  0.7546771E-02  0.1072502E+00
        -11   -1    0    0    0    0  0.00000000000E+00  0.00000000000E+00  0.18250000000E+03  0.18250000000E+03  0.00000000000E+00 0.  1.
         11   -1    0    0    0    0 -0.00000000000E+00 -0.00000000000E+00 -0.18250000000E+03  0.18250000000E+03  0.00000000000E+00 0. -1.
         23    2    1    2    0    0  0.30767121499E+01  0.71722328910E+02  0.14268843453E+03  0.18418586224E+03  0.91710871118E+02 0.  0.
        -11    1    1    2    0    0  0.28395911107E+02 -0.14751801283E+02 -0.10856001015E+02  0.33790474497E+02  0.00000000000E+00 0.  1.
         11    1    1    2    0    0 -0.31472623257E+02 -0.56970527627E+02 -0.13183243351E+03  0.14702366326E+03  0.00000000000E+00 0. -1.
        -15    1    3    3    0    0 -0.29876885584E+02 -0.62886507238E+01  0.50100504330E+02  0.58697475953E+02  0.17770000000E+01 0.  1.
         15    1    3    3    0    0  0.32953597734E+02  0.78010979634E+02  0.92587930195E+02  0.12548838629E+03  0.17770000000E+01 0. -1.
</event>
<event>
 7    1  0.2537562E-007  0.1491904E+03  0.7546771E-02  0.1098573E+00
        -11   -1    0    0    0    0  0.00000000000E+00  0.00000000000E+00  0.18250000000E+03  0.18250000000E+03  0.00000000000E+00 0.  1.
         11   -1    0    0    0    0 -0.00000000000E+00 -0.00000000000E+00 -0.18250000000E+03  0.18250000000E+03  0.00000000000E+00 0. -1.
         23    2    1    2    0    0  0.21355133251E+02  0.71047645763E+02 -0.55839946358E+02  0.13310310574E+03  0.95365231939E+02 0.  0.
        -11    1    1    2    0    0 -0.56094441425E+02 -0.37274322456E+02  0.12819977230E+03  0.14481416744E+03  0.00000000000E+00 0.  1.
         11    1    1    2    0    0  0.34739308173E+02 -0.33773323307E+02 -0.72359825946E+02  0.87082726821E+02  0.00000000000E+00 0. -1.
        -15    1    3    3    0    0 -0.62467947047E+01  0.60241707430E+02  0.95008622920E+01  0.61331149276E+02  0.17770000000E+01 0.  1.
         15    1    3    3    0    0  0.27601927956E+02  0.10805938333E+02 -0.65340808650E+02  0.71771956461E+02  0.17770000000E+01 0. -1.
</event>
<event>
 7    1  0.2537562E-007  0.1772083E+03  0.7546771E-02  0.1072747E+00
        -11   -1    0    0    0    0  0.00000000000E+00  0.00000000000E+00  0.18250000000E+03  0.18250000000E+03  0.00000000000E+00 0.  1.
         11   -1    0    0    0    0 -0.00000000000E+00 -0.00000000000E+00 -0.18250000000E+03  0.18250000000E+03  0.00000000000E+00 0. -1.
         23    2    1    2    0    0  0.75672492675E+02 -0.10781284589E+03  0.29805509187E+02  0.16343159697E+03  0.92041200686E+02 0.  0.
        -11    1    1    2    0    0 -0.81341245750E+02  0.13993237209E+03 -0.41202986778E+02  0.16701842155E+03  0.00000000000E+00 0. -1.
         11    1    1    2    0    0  0.56687530749E+01 -0.32119526195E+02  0.11397477592E+02  0.34549981474E+02  0.00000000000E+00 0.  1.
        -15    1    3    3    0    0  0.91836767323E+02 -0.59590632223E+02  0.25049745767E+02  0.11231955650E+03  0.17770000000E+01 0.  1.
         15    1    3    3    0    0 -0.16164274648E+02 -0.48222213671E+02  0.47557634198E+01  0.51112040469E+02  0.17770000000E+01 0. -1.
</event>
<event>
 7    1  0.2537562E-007  0.1646699E+03  0.7546771E-02  0.1083606E+00
        -11   -1    0    0    0    0  0.00000000000E+00  0.00000000000E+00  0.18250000000E+03  0.18250000000E+03  0.00000000000E+00 0.  1.
         11   -1    0    0    0    0 -0.00000000000E+00 -0.00000000000E+00 -0.18250000000E+03  0.18250000000E+03  0.00000000000E+00 0.  1.
         23    2    1    2    0    0 -0.10151865183E+01 -0.52764189408E+02  0.13769243161E+03  0.17569361430E+03  0.95519370274E+02 0.  0.
        -11    1    1    2    0    0  0.48334252392E+02  0.29948865178E+02 -0.19748566073E+02  0.60192527292E+02  0.00000000000E+00 0.  1.
         11    1    1    2    0    0 -0.47319065874E+02  0.22815324230E+02 -0.11794386553E+03  0.12911385840E+03  0.00000000000E+00 0.  1.
        -15    1    3    3    0    0  0.19995480862E+02 -0.70724241340E+02  0.12546285200E+03  0.14541603257E+03  0.17770000000E+01 0.  1.
         15    1    3    3    0    0 -0.21010667380E+02  0.17960051932E+02  0.12229579608E+02  0.30277581732E+02  0.17770000000E+01 0. -1.
</event>
<event>
 7    1  0.2537562E-007  0.1363781E+03  0.7546771E-02  0.1112558E+00
        -11   -1    0    0    0    0  0.00000000000E+00  0.00000000000E+00  0.18250000000E+03  0.18250000000E+03  0.00000000000E+00 0.  1.
         11   -1    0    0    0    0 -0.00000000000E+00 -0.00000000000E+00 -0.18250000000E+03  0.18250000000E+03  0.00000000000E+00 0.  1.
         23    2    1    2    0    0  0.32345835412E+02  0.45270673431E+01 -0.63902315654E+02  0.12450266806E+03  0.10173819833E+03 0.  0.
        -11    1    1    2    0    0  0.69531835044E+02 -0.23913778586E+02  0.10563771690E+03  0.12870847728E+03  0.00000000000E+00 0.  1.
         11    1    1    2    0    0 -0.10187767046E+03  0.19386711243E+02 -0.41735401246E+02  0.11178885467E+03  0.00000000000E+00 0.  1.
        -15    1    3    3    0    0  0.49988660537E+02 -0.19210870853E+02  0.52894214314E+00  0.53585084212E+02  0.17770000000E+01 0. -1.
         15    1    3    3    0    0 -0.17642825124E+02  0.23737938196E+02 -0.64431257798E+02  0.70917583846E+02  0.17770000000E+01 0.  1.
</event>
<event>
 7    1  0.2537562E-007  0.1329968E+03  0.7546771E-02  0.1116534E+00
        -11   -1    0    0    0    0  0.00000000000E+00  0.00000000000E+00  0.18250000000E+03  0.18250000000E+03  0.00000000000E+00 0.  1.
         11   -1    0    0    0    0 -0.00000000000E+00 -0.00000000000E+00 -0.18250000000E+03  0.18250000000E+03  0.00000000000E+00 0. -1.
         23    2    1    2    0    0  0.21894098093E+02 -0.28667352752E+02  0.73039680492E+02  0.12265302500E+03  0.91694061798E+02 0.  0.
        -11    1    1    2    0    0 -0.38956965044E+01 -0.99521173675E+02 -0.47756391513E+02  0.11045502882E+03  0.00000000000E+00 0. -1.
         11    1    1    2    0    0 -0.17998401588E+02  0.12818852643E+03 -0.25283288978E+02  0.13189194619E+03  0.00000000000E+00 0.  1.
        -15    1    3    3    0    0  0.53031642461E+02  0.38289964379E+01  0.34821309730E+02  0.63582211790E+02  0.17770000000E+01 0.  1.
         15    1    3    3    0    0 -0.31137544369E+02 -0.32496349190E+02  0.38218370762E+02  0.59070813205E+02  0.17770000000E+01 0. -1.
</event>
<event>
 7    1  0.2537562E-007  0.1461588E+03  0.7546771E-02  0.1101739E+00
        -11   -1    0    0    0    0  0.00000000000E+00  0.00000000000E+00  0.18250000000E+03  0.18250000000E+03  0.00000000000E+00 0.  1.
         11   -1    0    0    0    0 -0.00000000000E+00 -0.00000000000E+00 -0.18250000000E+03  0.18250000000E+03  0.00000000000E+00 0. -1.
         23    2    1    2    0    0  0.64594674405E+02  0.14558344218E+02 -0.64826704953E+02  0.12943980743E+03  0.90375575927E+02 0.  0.
        -11    1    1    2    0    0 -0.85438344174E+02  0.64839144963E+02  0.99638778348E+02  0.14639573602E+03  0.00000000000E+00 0.  1.
         11    1    1    2    0    0  0.20843669770E+02 -0.79397489182E+02 -0.34812073395E+02  0.89164456550E+02  0.00000000000E+00 0. -1.
        -15    1    3    3    0    0  0.83876820125E+01 -0.42269576612E+01 -0.69323812796E+02  0.69979776580E+02  0.17770000000E+01 0. -1.
         15    1    3    3    0    0  0.56206992392E+02  0.18785301879E+02  0.44971078430E+01  0.59460030848E+02  0.17770000000E+01 0.  1.
</event>
<event>
 7    1  0.2537562E-007  0.2061802E+03  0.7546771E-02  0.1051027E+00
        -11   -1    0    0    0    0  0.00000000000E+00  0.00000000000E+00  0.18250000000E+03  0.18250000000E+03  0.00000000000E+00 0.  1.
         11   -1    0    0    0    0 -0.00000000000E+00 -0.00000000000E+00 -0.18250000000E+03  0.18250000000E+03  0.00000000000E+00 0. -1.
         23    2    1    2    0    0  0.13603686439E+02  0.32252128833E+02 -0.38817075320E+02  0.97695617517E+02  0.82537314269E+02 0.  0.
        -11    1    1    2    0    0 -0.67163862016E+02 -0.74180215563E+02  0.12332894346E+03  0.15881976274E+03  0.00000000000E+00 0.  1.
         11    1    1    2    0    0  0.53560175577E+02  0.41928086730E+02 -0.84511868138E+02  0.10848461974E+03  0.00000000000E+00 0. -1.
        -15    1    3    3    0    0  0.33173819920E+02  0.22435960343E+02  0.12404173161E+02  0.41963029983E+02  0.17770000000E+01 0.  1.
         15    1    3    3    0    0 -0.19570133481E+02  0.98161684896E+01 -0.51221248481E+02  0.55732587534E+02  0.17770000000E+01 0. -1.
</event>
<event>
 7    1  0.2537562E-007  0.1398730E+03  0.7546771E-02  0.1108581E+00
        -11   -1    0    0    0    0  0.00000000000E+00  0.00000000000E+00  0.18250000000E+03  0.18250000000E+03  0.00000000000E+00 0.  1.
         11   -1    0    0    0    0 -0.00000000000E+00 -0.00000000000E+00 -0.18250000000E+03  0.18250000000E+03  0.00000000000E+00 0. -1.
         23    2    1    2    0    0 -0.72939860268E+02  0.90946944846E+02 -0.16699854993E+02  0.14963493174E+03  0.92304700032E+02 0.  0.
        -11    1    1    2    0    0  0.35222811448E+02 -0.47356894515E+02  0.98778629510E+02  0.11506754344E+03  0.00000000000E+00 0.  1.
         11    1    1    2    0    0  0.37717048820E+02 -0.43590050330E+02 -0.82078774516E+02  0.10029752482E+03  0.00000000000E+00 0. -1.
        -15    1    3    3    0    0 -0.14214967590E+02 -0.11646657750E+02 -0.25045984921E+02  0.31115414669E+02  0.17770000000E+01 0.  1.
         15    1    3    3    0    0 -0.58724892678E+02  0.10259360260E+03  0.83461299275E+01  0.11851951707E+03  0.17770000000E+01 0. -1.
</event>
<event>
 7    1  0.2537562E-007  0.1515735E+03  0.7546771E-02  0.1096142E+00
        -11   -1    0    0    0    0  0.00000000000E+00  0.00000000000E+00  0.18250000000E+03  0.18250000000E+03  0.00000000000E+00 0.  1.
         11   -1    0    0    0    0 -0.00000000000E+00 -0.00000000000E+00 -0.18250000000E+03  0.18250000000E+03  0.00000000000E+00 0.  1.
         23    2    1    2    0    0  0.74470500923E+02  0.16077068150E+01  0.91273328371E+02  0.14904922313E+03  0.91303944139E+02 0.  0.
        -11    1    1    2    0    0 -0.41037215201E+02 -0.65589420127E+02  0.23061114413E+02  0.80733141038E+02  0.00000000000E+00 0.  1.
         11    1    1    2    0    0 -0.33433285723E+02  0.63981713312E+02 -0.11433444278E+03  0.13521763583E+03  0.00000000000E+00 0.  1.
        -15    1    3    3    0    0  0.29542940319E+02 -0.43756083168E+02  0.51684027855E+02  0.73903833468E+02  0.17770000000E+01 0.  1.
         15    1    3    3    0    0  0.44927560604E+02  0.45363789983E+02  0.39589300516E+02  0.75145389664E+02  0.17770000000E+01 0. -1.
</event>
<event>
 7    1  0.2537562E-007  0.1576931E+03  0.7546771E-02  0.1090118E+00
        -11   -1    0    0    0    0  0.00000000000E+00  0.00000000000E+00  0.18250000000E+03  0.18250000000E+03  0.00000000000E+00 0.  1.
         11   -1    0    0    0    0 -0.00000000000E+00 -0.00000000000E+00 -0.18250000000E+03  0.18250000000E+03  0.00000000000E+00 0. -1.
         23    2    1    2    0    0 -0.27936091274E+02 -0.11934796040E+03 -0.68291593741E+02  0.16724758646E+03  0.91014573306E+02 0.  0.
        -11    1    1    2    0    0 -0.20791628281E+02  0.12464390171E+03  0.18200792319E+02  0.12767013308E+03  0.00000000000E+00 0.  1.
         11    1    1    2    0    0  0.48727719554E+02 -0.52959413019E+01  0.50090801422E+02  0.70082280459E+02  0.00000000000E+00 0. -1.
        -15    1    3    3    0    0 -0.45295863438E+02 -0.71458028513E+02 -0.33465223456E+01  0.84689562664E+02  0.17770000000E+01 0.  1.
         15    1    3    3    0    0  0.17359772164E+02 -0.47889931891E+02 -0.64945071395E+02  0.82558023799E+02  0.17770000000E+01 0. -1.
</event>
<event>
 7    1  0.2537562E-007  0.1852192E+03  0.7546771E-02  0.1066311E+00
        -11   -1    0    0    0    0  0.00000000000E+00  0.00000000000E+00  0.18250000000E+03  0.18250000000E+03  0.00000000000E+00 0.  1.
         11   -1    0    0    0    0 -0.00000000000E+00 -0.00000000000E+00 -0.18250000000E+03  0.18250000000E+03  0.00000000000E+00 0. -1.
         23    2    1    2    0    0 -0.15287212669E+02  0.12374730918E+02  0.15974931519E+03  0.18787537113E+03  0.96904481499E+02 0.  0.
        -11    1    1    2    0    0 -0.36924714904E+01  0.19228163024E+02 -0.83219919616E+01  0.21274683292E+02  0.00000000000E+00 0.  1.
         11    1    1    2    0    0  0.18979684160E+02 -0.31602893942E+02 -0.15142732323E+03  0.15584994558E+03  0.00000000000E+00 0. -1.
        -15    1    3    3    0    0 -0.21359617566E+02  0.17953594083E+02  0.55934199299E-01  0.27959357301E+02  0.17770000000E+01 0. -1.
         15    1    3    3    0    0  0.60724048965E+01 -0.55788631647E+01  0.15969338099E+03  0.15991601383E+03  0.17770000000E+01 0.  1.
</event>
<event>
 7    1  0.2537562E-007  0.1512845E+03  0.7546771E-02  0.1096434E+00
        -11   -1    0    0    0    0  0.00000000000E+00  0.00000000000E+00  0.18250000000E+03  0.18250000000E+03  0.00000000000E+00 0. -1.
         11   -1    0    0    0    0 -0.00000000000E+00 -0.00000000000E+00 -0.18250000000E+03  0.18250000000E+03  0.00000000000E+00 0. -1.
         23    2    1    2    0    0  0.16287670220E+01  0.21233259514E+02  0.14935041697E+03  0.17607502585E+03  0.90792970466E+02 0.  0.
        -11    1    1    2    0    0  0.52264902120E+02 -0.26324597710E+02 -0.55904802496E+02  0.80931769907E+02  0.00000000000E+00 0. -1.
         11    1    1    2    0    0 -0.53893669142E+02  0.50913381961E+01 -0.93445614477E+02  0.10799320425E+03  0.00000000000E+00 0. -1.
        -15    1    3    3    0    0 -0.51512410785E+01 -0.14130845754E+01 -0.11861441265E+02  0.13129493918E+02  0.17770000000E+01 0.  1.
         15    1    3    3    0    0  0.67800081005E+01  0.22646344089E+02  0.16121185824E+03  0.16294553193E+03  0.17770000000E+01 0. -1.
</event>
<event>
 7    1  0.2537562E-007  0.1479434E+03  0.7546771E-02  0.1099865E+00
        -11   -1    0    0    0    0  0.00000000000E+00  0.00000000000E+00  0.18250000000E+03  0.18250000000E+03  0.00000000000E+00 0.  1.
         11   -1    0    0    0    0 -0.00000000000E+00 -0.00000000000E+00 -0.18250000000E+03  0.18250000000E+03  0.00000000000E+00 0.  1.
         23    2    1    2    0    0  0.65683958374E+01  0.13623896192E+02  0.76923309756E+02  0.11906345565E+03  0.89611140579E+02 0.  0.
        -11    1    1    2    0    0  0.29921870646E+02  0.41487748668E+02  0.68911812989E+02  0.85821848045E+02  0.00000000000E+00 0.  1.
         11    1    1    2    0    0 -0.36490266483E+02 -0.55111644860E+02 -0.14583512274E+03  0.16011469631E+03  0.00000000000E+00 0.  1.
        -15    1    3    3    0    0  0.15645281623E+02 -0.33928399121E+02  0.14660134077E+02  0.40174474037E+02  0.17770000000E+01 0. -1.
         15    1    3    3    0    0 -0.90768857858E+01  0.47552295313E+02  0.62263175679E+02  0.78888981612E+02  0.17770000000E+01 0.  1.
</event>
<event>
 7    1  0.2537562E-007  0.1757538E+03  0.7546771E-02  0.1073955E+00
        -11   -1    0    0    0    0  0.00000000000E+00  0.00000000000E+00  0.18250000000E+03  0.18250000000E+03  0.00000000000E+00 0.  1.
         11   -1    0    0    0    0 -0.00000000000E+00 -0.00000000000E+00 -0.18250000000E+03  0.18250000000E+03  0.00000000000E+00 0.  1.
         23    2    1    2    0    0 -0.36011448653E+02  0.31859492366E+02  0.12371686587E+03  0.16226346272E+03  0.93336577745E+02 0.  0.
        -11    1    1    2    0    0 -0.13038894770E+02  0.28790017848E+02  0.21272275595E+02  0.38097081430E+02  0.00000000000E+00 0.  1.
         11    1    1    2    0    0  0.49050343423E+02 -0.60649510214E+02 -0.14498914147E+03  0.16463945585E+03  0.00000000000E+00 0.  1.
        -15    1    3    3    0    0 -0.26909415931E+02  0.60155249225E+02  0.11260099674E+03  0.13047954963E+03  0.17770000000E+01 0.  1.
         15    1    3    3    0    0 -0.91020327215E+01 -0.28295756859E+02  0.11115869128E+02  0.31783913091E+02  0.17770000000E+01 0. -1.
</event>
<event>
 7    1  0.2537562E-007  0.1666763E+03  0.7546771E-02  0.1081798E+00
        -11   -1    0    0    0    0  0.00000000000E+00  0.00000000000E+00  0.18250000000E+03  0.18250000000E+03  0.00000000000E+00 0.  1.
         11   -1    0    0    0    0 -0.00000000000E+00 -0.00000000000E+00 -0.18250000000E+03  0.18250000000E+03  0.00000000000E+00 0.  1.
         23    2    1    2    0    0 -0.49914414353E+02 -0.42060284602E+02  0.97700941176E+02  0.15116186965E+03  0.95099530122E+02 0.  0.
        -11    1    1    2    0    0  0.98267018619E+02  0.70662611350E+02 -0.10088782847E+03  0.15756892309E+03  0.00000000000E+00 0.  1.
         11    1    1    2    0    0 -0.48352604266E+02 -0.28602326748E+02  0.31868872914E+01  0.56269207257E+02  0.00000000000E+00 0.  1.
        -15    1    3    3    0    0 -0.52754441941E+02 -0.68049642673E+02  0.88241192565E+02  0.12330227413E+03  0.17770000000E+01 0.  1.
         15    1    3    3    0    0  0.28400275886E+01  0.25989358071E+02  0.94597486112E+01  0.27859595519E+02  0.17770000000E+01 0. -1.
</event>
<event>
 7    1  0.2537562E-007  0.1407583E+03  0.7546771E-02  0.1107593E+00
        -11   -1    0    0    0    0  0.00000000000E+00  0.00000000000E+00  0.18250000000E+03  0.18250000000E+03  0.00000000000E+00 0.  1.
         11   -1    0    0    0    0 -0.00000000000E+00 -0.00000000000E+00 -0.18250000000E+03  0.18250000000E+03  0.00000000000E+00 0. -1.
         23    2    1    2    0    0  0.68310871263E+02 -0.69164747236E+02  0.29759698607E+02  0.13677602269E+03  0.91498105596E+02 0.  0.
        -11    1    1    2    0    0 -0.42418407462E+02  0.10886262235E+03  0.56516637444E+02  0.12978644823E+03  0.00000000000E+00 0.  1.
         11    1    1    2    0    0 -0.25892463801E+02 -0.39697875111E+02 -0.86276336051E+02  0.98437529085E+02  0.00000000000E+00 0. -1.
        -15    1    3    3    0    0  0.50192310075E+02 -0.71615947825E+02  0.56647411232E+02  0.10421227808E+03  0.17770000000E+01 0.  1.
         15    1    3    3    0    0  0.18118561188E+02  0.24512005882E+01 -0.26887712625E+02  0.32563744610E+02  0.17770000000E+01 0. -1.
</event>
<event>
 7    1  0.2537562E-007  0.1877312E+03  0.7546771E-02  0.1064365E+00
        -11   -1    0    0    0    0  0.00000000000E+00  0.00000000000E+00  0.18250000000E+03  0.18250000000E+03  0.00000000000E+00 0.  1.
         11   -1    0    0    0    0 -0.00000000000E+00 -0.00000000000E+00 -0.18250000000E+03  0.18250000000E+03  0.00000000000E+00 0. -1.
         23    2    1    2    0    0 -0.17599299527E+02 -0.20897051147E+02  0.15787956584E+03  0.18773123840E+03  0.97829640031E+02 0.  0.
        -11    1    1    2    0    0 -0.19675041130E+02  0.34285913452E+02 -0.95748091081E+02  0.10358729676E+03  0.00000000000E+00 0. -1.
         11    1    1    2    0    0  0.37274340657E+02 -0.13388862305E+02 -0.62131474762E+02  0.73681464842E+02  0.00000000000E+00 0.  1.
        -15    1    3    3    0    0 -0.36436184882E+02 -0.20699030351E+02  0.16285258688E+03  0.16816708420E+03  0.17770000000E+01 0.  1.
         15    1    3    3    0    0  0.18836885356E+02 -0.19802079576E+00 -0.49730210371E+01  0.19564154195E+02  0.17770000000E+01 0. -1.
</event>
<event>
 7    1  0.2537562E-007  0.1289021E+03  0.7546771E-02  0.1121527E+00
        -11   -1    0    0    0    0  0.00000000000E+00  0.00000000000E+00  0.18250000000E+03  0.18250000000E+03  0.00000000000E+00 0. -1.
         11   -1    0    0    0    0 -0.00000000000E+00 -0.00000000000E+00 -0.18250000000E+03  0.18250000000E+03  0.00000000000E+00 0.  1.
         23    2    1    2    0    0  0.16930426431E+02 -0.15829788392E+02  0.40364070459E+02  0.10302762264E+03  0.91914151812E+02 0.  0.
        -11    1    1    2    0    0 -0.12365375563E+03 -0.14617400142E+02  0.33149125953E+02  0.12885179168E+03  0.00000000000E+00 0. -1.
         11    1    1    2    0    0  0.10672332920E+03  0.30447188534E+02 -0.73513196412E+02  0.13312058568E+03  0.00000000000E+00 0.  1.
        -15    1    3    3    0    0 -0.25323505889E+02  0.23170863580E+02  0.31570959196E+01  0.34515124992E+02  0.17770000000E+01 0. -1.
         15    1    3    3    0    0  0.42253932320E+02 -0.39000651972E+02  0.37206974539E+02  0.68512497649E+02  0.17770000000E+01 0.  1.
</event>
<event>
 7    1  0.2537562E-007  0.1724101E+03  0.7546771E-02  0.1076783E+00
        -11   -1    0    0    0    0  0.00000000000E+00  0.00000000000E+00  0.18250000000E+03  0.18250000000E+03  0.00000000000E+00 0. -1.
         11   -1    0    0    0    0 -0.00000000000E+00 -0.00000000000E+00 -0.18250000000E+03  0.18250000000E+03  0.00000000000E+00 0. -1.
         23    2    1    2    0    0  0.12086765634E+03 -0.80542004822E+02 -0.23034887966E+02  0.17131395504E+03  0.87874115859E+02 0.  0.
        -11    1    1    2    0    0 -0.12918997379E+03  0.57171451377E+02  0.56392930415E+02  0.15211438716E+03  0.00000000000E+00 0. -1.
         11    1    1    2    0    0  0.83223174576E+01  0.23370553445E+02 -0.33358042449E+02  0.41571657799E+02  0.00000000000E+00 0. -1.
        -15    1    3    3    0    0  0.48615428632E+02 -0.32247086761E+01 -0.41319858385E+02  0.63908896666E+02  0.17770000000E+01 0.  1.
         15    1    3    3    0    0  0.72252227704E+02 -0.77317296146E+02  0.18284970419E+02  0.10740505837E+03  0.17770000000E+01 0. -1.
</event>
<event>
 7    1  0.2537562E-007  0.1623106E+03  0.7546771E-02  0.1085768E+00
        -11   -1    0    0    0    0  0.00000000000E+00  0.00000000000E+00  0.18250000000E+03  0.18250000000E+03  0.00000000000E+00 0.  1.
         11   -1    0    0    0    0 -0.00000000000E+00 -0.00000000000E+00 -0.18250000000E+03  0.18250000000E+03  0.00000000000E+00 0. -1.
         23    2    1    2    0    0  0.82307206986E+02 -0.74527340899E+01  0.13513936762E+03  0.18321252579E+03  0.92055208223E+02 0.  0.
        -11    1    1    2    0    0 -0.71279762336E+01 -0.33687347211E+02 -0.52141483399E+02  0.62485035795E+02  0.00000000000E+00 0.  1.
         11    1    1    2    0    0 -0.75179230752E+02  0.41140081301E+02 -0.82997884218E+02  0.11930243841E+03  0.00000000000E+00 0. -1.
        -15    1    3    3    0    0  0.71975140607E+02 -0.40617860326E+00  0.14837231331E+03  0.16491842509E+03  0.17770000000E+01 0.  1.
         15    1    3    3    0    0  0.10332066379E+02 -0.70465554866E+01 -0.13232945696E+02  0.18294100707E+02  0.17770000000E+01 0. -1.
</event>
<event>
 7    1  0.2537562E-007  0.1507851E+03  0.7546771E-02  0.1096941E+00
        -11   -1    0    0    0    0  0.00000000000E+00  0.00000000000E+00  0.18250000000E+03  0.18250000000E+03  0.00000000000E+00 0.  1.
         11   -1    0    0    0    0 -0.00000000000E+00 -0.00000000000E+00 -0.18250000000E+03  0.18250000000E+03  0.00000000000E+00 0. -1.
         23    2    1    2    0    0  0.41345552942E+02 -0.66227387845E+02  0.10981963517E+03  0.16246675163E+03  0.90772085299E+02 0.  0.
        -11    1    1    2    0    0  0.54955825827E+02  0.14106996979E+02 -0.58864865879E+02  0.81757095050E+02  0.00000000000E+00 0.  1.
         11    1    1    2    0    0 -0.96301378769E+02  0.52120390865E+02 -0.50954769287E+02  0.12077615332E+03  0.00000000000E+00 0. -1.
        -15    1    3    3    0    0  0.12665555177E+02 -0.58822428472E+02  0.13516524295E+02  0.61695611978E+02  0.17770000000E+01 0.  1.
         15    1    3    3    0    0  0.28679997766E+02 -0.74049593726E+01  0.96303110871E+02  0.10077113966E+03  0.17770000000E+01 0. -1.
</event>
<event>
 7    1  0.2537562E-007  0.1631522E+03  0.7546771E-02  0.1084992E+00
        -11   -1    0    0    0    0  0.00000000000E+00  0.00000000000E+00  0.18250000000E+03  0.18250000000E+03  0.00000000000E+00 0.  1.
         11   -1    0    0    0    0 -0.00000000000E+00 -0.00000000000E+00 -0.18250000000E+03  0.18250000000E+03  0.00000000000E+00 0.  1.
         23    2    1    2    0    0  0.25770849076E+02 -0.16399160217E+02  0.13940361367E+03  0.16831667991E+03  0.89241627690E+02 0.  0.
        -11    1    1    2    0    0  0.11998302204E+02  0.56568782416E+02 -0.13713068846E+02  0.59430923406E+02  0.00000000000E+00 0.  1.
         11    1    1    2    0    0 -0.37769151281E+02 -0.40169622199E+02 -0.12569054483E+03  0.13725239668E+03  0.00000000000E+00 0.  1.
        -15    1    3    3    0    0 -0.25530892319E+02 -0.66211923597E+01  0.91534514059E+01  0.27975168498E+02  0.17770000000E+01 0. -1.
         15    1    3    3    0    0  0.51301741395E+02 -0.97779678572E+01  0.13025016227E+03  0.14034151141E+03  0.17770000000E+01 0.  1.
</event>
<event>
 7    1  0.2537562E-007  0.1308490E+03  0.7546771E-02  0.1119128E+00
        -11   -1    0    0    0    0  0.00000000000E+00  0.00000000000E+00  0.18250000000E+03  0.18250000000E+03  0.00000000000E+00 0. -1.
         11   -1    0    0    0    0 -0.00000000000E+00 -0.00000000000E+00 -0.18250000000E+03  0.18250000000E+03  0.00000000000E+00 0. -1.
         23    2    1    2    0    0  0.36325667466E+02 -0.31482736307E+02  0.46973503240E+02  0.11674400371E+03  0.95456459144E+02 0.  0.
        -11    1    1    2    0    0  0.42715982201E+02  0.10325772117E+03  0.31096481339E+02  0.11599053094E+03  0.00000000000E+00 0. -1.
         11    1    1    2    0    0 -0.79041649666E+02 -0.71774984860E+02 -0.78069984579E+02  0.13226546536E+03  0.00000000000E+00 0. -1.
        -15    1    3    3    0    0  0.29073461924E+02  0.12308952617E+02  0.62205485214E+02  0.69781491976E+02  0.17770000000E+01 0. -1.
         15    1    3    3    0    0  0.72522055419E+01 -0.43791688924E+02 -0.15231981974E+02  0.46962511729E+02  0.17770000000E+01 0.  1.
</event>
<event>
 7    1  0.2537562E-007  0.1483687E+03  0.7546771E-02  0.1099423E+00
        -11   -1    0    0    0    0  0.00000000000E+00  0.00000000000E+00  0.18250000000E+03  0.18250000000E+03  0.00000000000E+00 0. -1.
         11   -1    0    0    0    0 -0.00000000000E+00 -0.00000000000E+00 -0.18250000000E+03  0.18250000000E+03  0.00000000000E+00 0.  1.
         23    2    1    2    0    0  0.57087101823E+01  0.10841372014E+02  0.86898721545E+02  0.12547815183E+03  0.89684190698E+02 0.  0.
        -11    1    1    2    0    0 -0.18753348704E+02 -0.57958522394E+02  0.59513361612E+02  0.85162894597E+02  0.00000000000E+00 0. -1.
         11    1    1    2    0    0  0.13044638521E+02  0.47117150380E+02 -0.14641208316E+03  0.15435895357E+03  0.00000000000E+00 0.  1.
        -15    1    3    3    0    0  0.39180250447E+02  0.31756115310E+02  0.55493541006E+02  0.75008224263E+02  0.17770000000E+01 0.  1.
         15    1    3    3    0    0 -0.33471540265E+02 -0.20914743296E+02  0.31405180539E+02  0.50469927566E+02  0.17770000000E+01 0. -1.
</event>
<event>
 7    1  0.2537562E-007  0.1890893E+03  0.7546771E-02  0.1063327E+00
        -11   -1    0    0    0    0  0.00000000000E+00  0.00000000000E+00  0.18250000000E+03  0.18250000000E+03  0.00000000000E+00 0.  1.
         11   -1    0    0    0    0 -0.00000000000E+00 -0.00000000000E+00 -0.18250000000E+03  0.18250000000E+03  0.00000000000E+00 0. -1.
         23    2    1    2    0    0 -0.60422863509E+02  0.31850610674E+00  0.15416195961E+03  0.18908930455E+03  0.91311726659E+02 0.  0.
        -11    1    1    2    0    0  0.43509899746E+02 -0.20016883510E+02 -0.13610556351E+03  0.14428621355E+03  0.00000000000E+00 0. -1.
         11    1    1    2    0    0  0.16912963763E+02  0.19698377403E+02 -0.18056396092E+02  0.31624481899E+02  0.00000000000E+00 0.  1.
        -15    1    3    3    0    0 -0.17078666111E+02  0.41076596487E+02  0.96220107436E+02  0.10602091501E+03  0.17770000000E+01 0. -1.
         15    1    3    3    0    0 -0.43344197398E+02 -0.40758090380E+02  0.57941852169E+02  0.83068389543E+02  0.17770000000E+01 0.  1.
</event>
<event>
 7    1  0.2537562E-007  0.1336122E+03  0.7546771E-02  0.1115801E+00
        -11   -1    0    0    0    0  0.00000000000E+00  0.00000000000E+00  0.18250000000E+03  0.18250000000E+03  0.00000000000E+00 0. -1.
         11   -1    0    0    0    0 -0.00000000000E+00 -0.00000000000E+00 -0.18250000000E+03  0.18250000000E+03  0.00000000000E+00 0.  1.
         23    2    1    2    0    0 -0.36211168351E+02 -0.52626966887E+02 -0.72891121886E+02  0.13667743132E+03  0.96367827744E+02 0.  0.
        -11    1    1    2    0    0 -0.69318144246E+02  0.81460094690E+02  0.34645555689E+02  0.11243249832E+03  0.00000000000E+00 0.  1.
         11    1    1    2    0    0  0.10552931260E+03 -0.28833127803E+02  0.38245566197E+02  0.11589007037E+03  0.00000000000E+00 0. -1.
        -15    1    3    3    0    0 -0.33006559581E+01  0.22912986783E+01 -0.72494186531E+02  0.72627193180E+02  0.17770000000E+01 0.  1.
         15    1    3    3    0    0 -0.32910512393E+02 -0.54918265565E+02 -0.39693535558E+00  0.64050238136E+02  0.17770000000E+01 0. -1.
</event>
<event>
 7    1  0.2537562E-007  0.1659179E+03  0.7546771E-02  0.1082478E+00
        -11   -1    0    0    0    0  0.00000000000E+00  0.00000000000E+00  0.18250000000E+03  0.18250000000E+03  0.00000000000E+00 0.  1.
         11   -1    0    0    0    0 -0.00000000000E+00 -0.00000000000E+00 -0.18250000000E+03  0.18250000000E+03  0.00000000000E+00 0. -1.
         23    2    1    2    0    0 -0.30620232966E+02 -0.10847743815E+03 -0.75721616375E+02  0.15927323011E+03  0.83242089034E+02 0.  0.
        -11    1    1    2    0    0  0.80537063314E+02  0.10075952061E+03  0.84853106900E+02  0.15439802237E+03  0.00000000000E+00 0.  1.
         11    1    1    2    0    0 -0.49916830348E+02  0.77179175399E+01 -0.91314905251E+01  0.51328747523E+02  0.00000000000E+00 0. -1.
        -15    1    3    3    0    0  0.35468490168E+00 -0.94601200738E+02 -0.81400261663E+02  0.12481455568E+03  0.17770000000E+01 0. -1.
         15    1    3    3    0    0 -0.30974917868E+02 -0.13876237415E+02  0.56786452877E+01  0.34458674423E+02  0.17770000000E+01 0.  1.
</event>
<event>
 7    1  0.2537562E-007  0.1794083E+03  0.7546771E-02  0.1070943E+00
        -11   -1    0    0    0    0  0.00000000000E+00  0.00000000000E+00  0.18250000000E+03  0.18250000000E+03  0.00000000000E+00 0. -1.
         11   -1    0    0    0    0 -0.00000000000E+00 -0.00000000000E+00 -0.18250000000E+03  0.18250000000E+03  0.00000000000E+00 0.  1.
         23    2    1    2    0    0  0.28720505025E+02  0.45793612531E+01  0.14775535377E+03  0.17633653601E+03  0.91744707777E+02 0.  0.
        -11    1    1    2    0    0 -0.32292375631E+01  0.29462501310E+02  0.50360631100E+01  0.30063747110E+02  0.00000000000E+00 0. -1.
         11    1    1    2    0    0 -0.25491267462E+02 -0.34041862563E+02 -0.15279141688E+03  0.15859971688E+03  0.00000000000E+00 0.  1.
        -15    1    3    3    0    0  0.16458300182E+02 -0.99742074302E+01 -0.68873184331E+01  0.20517147534E+02  0.17770000000E+01 0.  1.
         15    1    3    3    0    0  0.12262204843E+02  0.14553568683E+02  0.15464267220E+03  0.15581938847E+03  0.17770000000E+01 0. -1.
</event>
<event>
 7    1  0.2537562E-007  0.1687365E+03  0.7546771E-02  0.1079971E+00
        -11   -1    0    0    0    0  0.00000000000E+00  0.00000000000E+00  0.18250000000E+03  0.18250000000E+03  0.00000000000E+00 0. -1.
         11   -1    0    0    0    0 -0.00000000000E+00 -0.00000000000E+00 -0.18250000000E+03  0.18250000000E+03  0.00000000000E+00 0.  1.
         23    2    1    2    0    0  0.30728596531E+02 -0.27596619176E+02  0.11605527163E+03  0.15252994902E+03  0.89948536622E+02 0.  0.
        -11    1    1    2    0    0 -0.18089253583E+02 -0.28417116239E+02  0.36378339925E+02  0.49579604740E+02  0.00000000000E+00 0. -1.
         11    1    1    2    0    0 -0.12639342948E+02  0.56013735415E+02 -0.15243361155E+03  0.16289044624E+03  0.00000000000E+00 0.  1.
        -15    1    3    3    0    0 -0.12665242414E+02 -0.23203355331E+02 -0.20915218076E+01  0.26576987348E+02  0.17770000000E+01 0.  1.
         15    1    3    3    0    0  0.43393838945E+02 -0.43932638452E+01  0.11814679344E+03  0.12595296167E+03  0.17770000000E+01 0. -1.
</event>
<event>
 7    1  0.2537562E-007  0.1705866E+03  0.7546771E-02  0.1078354E+00
        -11   -1    0    0    0    0  0.00000000000E+00  0.00000000000E+00  0.18250000000E+03  0.18250000000E+03  0.00000000000E+00 0.  1.
         11   -1    0    0    0    0 -0.00000000000E+00 -0.00000000000E+00 -0.18250000000E+03  0.18250000000E+03  0.00000000000E+00 0. -1.
         23    2    1    2    0    0 -0.91846920972E+01  0.22726253025E+02  0.14991434757E+03  0.17694354299E+03  0.90740644986E+02 0.  0.
        -11    1    1    2    0    0  0.38897786706E+02  0.18348075868E+02 -0.17793325242E+02  0.46543443381E+02  0.00000000000E+00 0.  1.
         11    1    1    2    0    0 -0.29713094608E+02 -0.41074328892E+02 -0.13212102233E+03  0.14151301363E+03  0.00000000000E+00 0. -1.
        -15    1    3    3    0    0  0.19231423673E+02  0.12890978858E+01 -0.33026846420E+01  0.19636060824E+02  0.17770000000E+01 0. -1.
         15    1    3    3    0    0 -0.28416115770E+02  0.21437155139E+02  0.15321703221E+03  0.15730748216E+03  0.17770000000E+01 0.  1.
</event>
<event>
 7    1  0.2537562E-007  0.2127343E+03  0.7546771E-02  0.1046650E+00
        -11   -1    0    0    0    0  0.00000000000E+00  0.00000000000E+00  0.18250000000E+03  0.18250000000E+03  0.00000000000E+00 0. -1.
         11   -1    0    0    0    0 -0.00000000000E+00 -0.00000000000E+00 -0.18250000000E+03  0.18250000000E+03  0.00000000000E+00 0.  1.
         23    2    1    2    0    0 -0.12823835454E+02  0.22097612147E+02 -0.62780077583E+02  0.11106618734E+03  0.87986388784E+02 0.  0.
        -11    1    1    2    0    0 -0.13760590699E+02  0.23126826529E+02  0.14986870949E+03  0.15226566929E+03  0.00000000000E+00 0. -1.
         11    1    1    2    0    0  0.26584426153E+02 -0.45224438676E+02 -0.87088631906E+02  0.10166814336E+03  0.00000000000E+00 0.  1.
        -15    1    3    3    0    0 -0.27734946735E+02  0.17104959879E+02  0.11894004372E+02  0.34733729887E+02  0.17770000000E+01 0. -1.
         15    1    3    3    0    0  0.14911111281E+02  0.49926522683E+01 -0.74674081955E+02  0.76332457456E+02  0.17770000000E+01 0.  1.
</event>
<event>
 7    1  0.2537562E-007  0.1786899E+03  0.7546771E-02  0.1071529E+00
        -11   -1    0    0    0    0  0.00000000000E+00  0.00000000000E+00  0.18250000000E+03  0.18250000000E+03  0.00000000000E+00 0.  1.
         11   -1    0    0    0    0 -0.00000000000E+00 -0.00000000000E+00 -0.18250000000E+03  0.18250000000E+03  0.00000000000E+00 0. -1.
         23    2    1    2    0    0  0.12210156192E+02  0.34695993402E+02  0.14491167840E+03  0.17686316976E+03  0.94489610064E+02 0.  0.
        -11    1    1    2    0    0 -0.32133569512E+02  0.67893657158E+01  0.32393562617E+01  0.33002351513E+02  0.00000000000E+00 0.  1.
         11    1    1    2    0    0  0.19923413320E+02 -0.41485359118E+02 -0.14815103466E+03  0.15513447873E+03  0.00000000000E+00 0. -1.
        -15    1    3    3    0    0  0.47174958098E+02 -0.45785286777E+01  0.54423201130E+02  0.72190595971E+02  0.17770000000E+01 0.  1.
         15    1    3    3    0    0 -0.34964801906E+02  0.39274522079E+02  0.90488477266E+02  0.10467257379E+03  0.17770000000E+01 0. -1.
</event>
<event>
 7    1  0.2537562E-007  0.1799709E+03  0.7546771E-02  0.1070486E+00
        -11   -1    0    0    0    0  0.00000000000E+00  0.00000000000E+00  0.18250000000E+03  0.18250000000E+03  0.00000000000E+00 0.  1.
         11   -1    0    0    0    0 -0.00000000000E+00 -0.00000000000E+00 -0.18250000000E+03  0.18250000000E+03  0.00000000000E+00 0. -1.
         23    2    1    2    0    0  0.61676109522E+02 -0.34810315369E+02  0.13624443432E+03  0.17911215689E+03  0.92211270035E+02 0.  0.
        -11    1    1    2    0    0 -0.26311105254E+02  0.10917847173E+01  0.12625427462E+02  0.29203898236E+02  0.00000000000E+00 0.  1.
         11    1    1    2    0    0 -0.35365004268E+02  0.33718530652E+02 -0.14886986178E+03  0.15668394488E+03  0.00000000000E+00 0. -1.
        -15    1    3    3    0    0  0.11003553136E+02  0.17258811132E+02  0.91470902794E+02  0.93749818828E+02  0.17770000000E+01 0.  1.
         15    1    3    3    0    0  0.50672556386E+02 -0.52069126501E+02  0.44773531521E+02  0.85362338061E+02  0.17770000000E+01 0. -1.
</event>
<event>
 7    1  0.2537562E-007  0.2075163E+03  0.7546771E-02  0.1050120E+00
        -11   -1    0    0    0    0  0.00000000000E+00  0.00000000000E+00  0.18250000000E+03  0.18250000000E+03  0.00000000000E+00 0.  1.
         11   -1    0    0    0    0 -0.00000000000E+00 -0.00000000000E+00 -0.18250000000E+03  0.18250000000E+03  0.00000000000E+00 0.  1.
         23    2    1    2    0    0  0.17624829617E+01  0.29564144613E+02  0.52912344662E+02  0.10586488999E+03  0.86778532607E+02 0.  0.
        -11    1    1    2    0    0  0.24721923761E+02  0.47705385546E+01  0.98483895266E+02  0.10165141012E+03  0.00000000000E+00 0.  1.
         11    1    1    2    0    0 -0.26484406722E+02 -0.34334683167E+02 -0.15139623993E+03  0.15748369989E+03  0.00000000000E+00 0.  1.
        -15    1    3    3    0    0 -0.41844249217E+02  0.71269400763E+01  0.27438014945E+02  0.50574073007E+02  0.17770000000E+01 0.  1.
         15    1    3    3    0    0  0.43606732179E+02  0.22437204536E+02  0.25474329717E+02  0.55290816980E+02  0.17770000000E+01 0. -1.
</event>
<event>
 7    1  0.2537562E-007  0.2146579E+03  0.7546771E-02  0.1045397E+00
        -11   -1    0    0    0    0  0.00000000000E+00  0.00000000000E+00  0.18250000000E+03  0.18250000000E+03  0.00000000000E+00 0. -1.
         11   -1    0    0    0    0 -0.00000000000E+00 -0.00000000000E+00 -0.18250000000E+03  0.18250000000E+03  0.00000000000E+00 0.  1.
         23    2    1    2    0    0  0.53676269480E+02 -0.13110711504E+02 -0.97428373583E+01  0.10568452187E+03  0.89561501898E+02 0.  0.
        -11    1    1    2    0    0 -0.10680113426E+03  0.13972313559E+02  0.10488587625E+03  0.15034212604E+03  0.00000000000E+00 0. -1.
         11    1    1    2    0    0  0.53124864784E+02 -0.86160205571E+00 -0.95143038887E+02  0.10897335209E+03  0.00000000000E+00 0.  1.
        -15    1    3    3    0    0  0.51522159453E+01 -0.45809581170E+02 -0.97140913690E+01  0.47144292934E+02  0.17770000000E+01 0.  1.
         15    1    3    3    0    0  0.48524053535E+02  0.32698869666E+02 -0.28745989237E-01  0.58540228939E+02  0.17770000000E+01 0. -1.
</event>
<event>
 7    1  0.2537562E-007  0.1285554E+03  0.7546771E-02  0.1121959E+00
        -11   -1    0    0    0    0  0.00000000000E+00  0.00000000000E+00  0.18250000000E+03  0.18250000000E+03  0.00000000000E+00 0.  1.
         11   -1    0    0    0    0 -0.00000000000E+00 -0.00000000000E+00 -0.18250000000E+03  0.18250000000E+03  0.00000000000E+00 0.  1.
         23    2    1    2    0    0  0.70319572504E+01  0.34718626754E+02  0.32271848468E+02  0.10346163478E+03  0.91695180910E+02 0.  0.
        -11    1    1    2    0    0 -0.68849074702E+02 -0.94544026132E+02  0.63271062961E+02  0.13297366421E+03  0.00000000000E+00 0.  1.
         11    1    1    2    0    0  0.61817117452E+02  0.59825399378E+02 -0.95542911429E+02  0.12856470101E+03  0.00000000000E+00 0.  1.
        -15    1    3    3    0    0  0.49284214192E+02  0.18589674343E+02  0.13097291370E+02  0.54306597490E+02  0.17770000000E+01 0.  1.
         15    1    3    3    0    0 -0.42252256941E+02  0.16128952411E+02  0.19174557098E+02  0.49155037294E+02  0.17770000000E+01 0. -1.
</event>
<event>
 7    1  0.2537562E-007  0.1766894E+03  0.7546771E-02  0.1073176E+00
        -11   -1    0    0    0    0  0.00000000000E+00  0.00000000000E+00  0.18250000000E+03  0.18250000000E+03  0.00000000000E+00 0.  1.
         11   -1    0    0    0    0 -0.00000000000E+00 -0.00000000000E+00 -0.18250000000E+03  0.18250000000E+03  0.00000000000E+00 0. -1.
         23    2    1    2    0    0  0.65144583189E+02 -0.23850045062E+02 -0.12745997043E+03  0.17160429704E+03  0.91593391317E+02 0.  0.
        -11    1    1    2    0    0 -0.48604349664E+02  0.51871179247E+02  0.14119325327E+03  0.15807762907E+03  0.00000000000E+00 0.  1.
         11    1    1    2    0    0 -0.16540233525E+02 -0.28021134185E+02 -0.13733282840E+02  0.35318073895E+02  0.00000000000E+00 0. -1.
        -15    1    3    3    0    0  0.70278933560E+02 -0.57227295330E+01 -0.37909248638E+02  0.80075882742E+02  0.17770000000E+01 0. -1.
         15    1    3    3    0    0 -0.51343503708E+01 -0.18127315529E+02 -0.89550721789E+02  0.91528414298E+02  0.17770000000E+01 0.  1.
</event>
<event>
 7    1  0.2537562E-007  0.2163578E+03  0.7546771E-02  0.1044303E+00
        -11   -1    0    0    0    0  0.00000000000E+00  0.00000000000E+00  0.18250000000E+03  0.18250000000E+03  0.00000000000E+00 0.  1.
         11   -1    0    0    0    0 -0.00000000000E+00 -0.00000000000E+00 -0.18250000000E+03  0.18250000000E+03  0.00000000000E+00 0.  1.
         23    2    1    2    0    0  0.53252354620E+02 -0.64235942517E+01  0.49649649262E+02  0.11950366421E+03  0.94546085337E+02 0.  0.
        -11    1    1    2    0    0 -0.19895671253E+02 -0.12931815787E+02  0.93902403940E+02  0.96854174200E+02  0.00000000000E+00 0.  1.
         11    1    1    2    0    0 -0.33356683367E+02  0.19355410039E+02 -0.14355205320E+03  0.14864216159E+03  0.00000000000E+00 0.  1.
        -15    1    3    3    0    0  0.10969284369E+02  0.33840410462E+02 -0.89887388735E+01  0.36734911669E+02  0.17770000000E+01 0. -1.
         15    1    3    3    0    0  0.42283070250E+02 -0.40264004714E+02  0.58638388136E+02  0.82768752543E+02  0.17770000000E+01 0.  1.
</event>
<event>
 7    1  0.2537562E-007  0.1528992E+03  0.7546771E-02  0.1094811E+00
        -11   -1    0    0    0    0  0.00000000000E+00  0.00000000000E+00  0.18250000000E+03  0.18250000000E+03  0.00000000000E+00 0. -1.
         11   -1    0    0    0    0 -0.00000000000E+00 -0.00000000000E+00 -0.18250000000E+03  0.18250000000E+03  0.00000000000E+00 0.  1.
         23    2    1    2    0    0 -0.48031111384E+02 -0.32542345979E+02  0.11223240167E+03  0.15404399944E+03  0.88133136996E+02 0.  0.
        -11    1    1    2    0    0  0.67898694970E+02  0.29363038580E+02  0.20455033203E+02  0.76751737417E+02  0.00000000000E+00 0. -1.
         11    1    1    2    0    0 -0.19867583586E+02  0.31793073999E+01 -0.13268743487E+03  0.13420426314E+03  0.00000000000E+00 0.  1.
        -15    1    3    3    0    0 -0.33638045496E+02  0.24081064229E+02  0.22984441600E+02  0.47358822239E+02  0.17770000000E+01 0.  1.
         15    1    3    3    0    0 -0.14393065888E+02 -0.56623410208E+02  0.89247960067E+02  0.10668517720E+03  0.17770000000E+01 0. -1.
</event>
<event>
 7    1  0.2537562E-007  0.1573884E+03  0.7546771E-02  0.1090411E+00
        -11   -1    0    0    0    0  0.00000000000E+00  0.00000000000E+00  0.18250000000E+03  0.18250000000E+03  0.00000000000E+00 0.  1.
         11   -1    0    0    0    0 -0.00000000000E+00 -0.00000000000E+00 -0.18250000000E+03  0.18250000000E+03  0.00000000000E+00 0. -1.
         23    2    1    2    0    0 -0.47666768083E+02 -0.56932413227E+02 -0.79176325357E+02  0.14348600778E+03  0.93839882117E+02 0.  0.
        -11    1    1    2    0    0 -0.44338691649E+00  0.71668082441E+02  0.13097414492E+03  0.14930082810E+03  0.00000000000E+00 0.  1.
         11    1    1    2    0    0  0.48110154999E+02 -0.14735669214E+02 -0.51797819565E+02  0.72213164124E+02  0.00000000000E+00 0. -1.
        -15    1    3    3    0    0  0.22586462056E+02 -0.22802621875E+02 -0.51295524110E+02  0.60535083673E+02  0.17770000000E+01 0.  1.
         15    1    3    3    0    0 -0.70253230139E+02 -0.34129791353E+02 -0.27880801246E+02  0.82950924105E+02  0.17770000000E+01 0. -1.
</event>
<event>
 7    1  0.2581102E-007  0.1519060E+03  0.7546771E-02  0.1095807E+00
        -11   -1    0    0    0    0  0.00000000000E+00  0.00000000000E+00  0.18250000000E+03  0.18250000000E+03  0.00000000000E+00 0.  1.
         11   -1    0    0    0    0 -0.00000000000E+00 -0.00000000000E+00 -0.18250000000E+03  0.18250000000E+03  0.00000000000E+00 0. -1.
         23    2    1    2    0    0 -0.28549680263E+02  0.45865390016E+02 -0.81262340360E+02  0.13044933343E+03  0.86572180222E+02 0.  0.
        -11    1    1    2    0    0  0.10134584243E+03 -0.54671417938E+02  0.10665048518E+03  0.15695308122E+03  0.00000000000E+00 0.  1.
         11    1    1    2    0    0 -0.72796162164E+02  0.88060279215E+01 -0.25388144820E+02  0.77597585342E+02  0.00000000000E+00 0. -1.
        -15    1    3    3    0    0 -0.92775727736E+01 -0.20693064312E+02 -0.48940582747E+02  0.53968644932E+02  0.17770000000E+01 0. -1.
         15    1    3    3    0    0 -0.19272107489E+02  0.66558454328E+02 -0.32321757612E+02  0.76480688502E+02  0.17770000000E+01 0.  1.
</event>
<event>
 7    1  0.2537562E-007  0.1179131E+03  0.7546771E-02  0.1136006E+00
        -11   -1    0    0    0    0  0.00000000000E+00  0.00000000000E+00  0.18250000000E+03  0.18250000000E+03  0.00000000000E+00 0.  1.
         11   -1    0    0    0    0 -0.00000000000E+00 -0.00000000000E+00 -0.18250000000E+03  0.18250000000E+03  0.00000000000E+00 0.  1.
         23    2    1    2    0    0  0.34313880811E+02 -0.35011987318E+02 -0.60150164858E+02  0.11673529928E+03  0.87211272737E+02 0.  0.
        -11    1    1    2    0    0 -0.12406770200E+02 -0.81750281237E+02  0.93554715029E+02  0.12485800388E+03  0.00000000000E+00 0.  1.
         11    1    1    2    0    0 -0.21907110611E+02  0.11676226855E+03 -0.33404550171E+02  0.12340669684E+03  0.00000000000E+00 0.  1.
        -15    1    3    3    0    0  0.12507813301E+02  0.27342041557E+02 -0.34634730796E+02  0.45899400175E+02  0.17770000000E+01 0.  1.
         15    1    3    3    0    0  0.21806067510E+02 -0.62354028875E+02 -0.25515434062E+02  0.70835899102E+02  0.17770000000E+01 0. -1.
</event>
<event>
 7    1  0.2537562E-007  0.1662865E+03  0.7546771E-02  0.1082147E+00
        -11   -1    0    0    0    0  0.00000000000E+00  0.00000000000E+00  0.18250000000E+03  0.18250000000E+03  0.00000000000E+00 0.  1.
         11   -1    0    0    0    0 -0.00000000000E+00 -0.00000000000E+00 -0.18250000000E+03  0.18250000000E+03  0.00000000000E+00 0. -1.
         23    2    1    2    0    0  0.21370088023E+02  0.18570596857E+02  0.15241687434E+03  0.18023638092E+03  0.91938575649E+02 0.  0.
        -11    1    1    2    0    0  0.37859381292E+02  0.56860696465E+01 -0.39763606092E+02  0.55197903124E+02  0.00000000000E+00 0.  1.
         11    1    1    2    0    0 -0.59229469315E+02 -0.24256666503E+02 -0.11265326825E+03  0.12956571596E+03  0.00000000000E+00 0. -1.
        -15    1    3    3    0    0  0.12200485841E+01 -0.94579316239E+01  0.14443602166E+03  0.14476140048E+03  0.17770000000E+01 0. -1.
         15    1    3    3    0    0  0.20150039439E+02  0.28028528481E+02  0.79808526851E+01  0.35474980433E+02  0.17770000000E+01 0.  1.
</event>
<event>
 7    1  0.2537562E-007  0.1642848E+03  0.7546771E-02  0.1083956E+00
        -11   -1    0    0    0    0  0.00000000000E+00  0.00000000000E+00  0.18250000000E+03  0.18250000000E+03  0.00000000000E+00 0.  1.
         11   -1    0    0    0    0 -0.00000000000E+00 -0.00000000000E+00 -0.18250000000E+03  0.18250000000E+03  0.00000000000E+00 0.  1.
         23    2    1    2    0    0  0.44893492910E+02 -0.53863619534E+01  0.13044466414E+03  0.16319454753E+03  0.87018454028E+02 0.  0.
        -11    1    1    2    0    0 -0.83261704952E+02 -0.32634804359E+02 -0.11489329019E+03  0.14559536427E+03  0.00000000000E+00 0.  1.
         11    1    1    2    0    0  0.38368212042E+02  0.38021166313E+02 -0.15551373946E+02  0.56210088193E+02  0.00000000000E+00 0.  1.
        -15    1    3    3    0    0  0.53658812529E+02  0.29130191185E+02  0.94820924064E+02  0.11279185064E+03  0.17770000000E+01 0.  1.
         15    1    3    3    0    0 -0.87653196193E+01 -0.34516553138E+02  0.35623740074E+02  0.50402696897E+02  0.17770000000E+01 0. -1.
</event>
<event>
 7    1  0.2537562E-007  0.1588313E+03  0.7546771E-02  0.1089031E+00
        -11   -1    0    0    0    0  0.00000000000E+00  0.00000000000E+00  0.18250000000E+03  0.18250000000E+03  0.00000000000E+00 0. -1.
         11   -1    0    0    0    0 -0.00000000000E+00 -0.00000000000E+00 -0.18250000000E+03  0.18250000000E+03  0.00000000000E+00 0.  1.
         23    2    1    2    0    0 -0.81162522138E+02 -0.21511550169E+02  0.85648630051E+02  0.15290639001E+03  0.94839730523E+02 0.  0.
        -11    1    1    2    0    0  0.48699228230E+02 -0.53023269658E+00  0.50645877184E+02  0.70263083143E+02  0.00000000000E+00 0. -1.
         11    1    1    2    0    0  0.32463293907E+02  0.22041782865E+02 -0.13629450724E+03  0.14183052685E+03  0.00000000000E+00 0.  1.
        -15    1    3    3    0    0 -0.19984792852E+01 -0.22362206782E+02 -0.13312638138E+02  0.26161924142E+02  0.17770000000E+01 0.  1.
         15    1    3    3    0    0 -0.79164042853E+02  0.85065661373E+00  0.98961268189E+02  0.12674446587E+03  0.17770000000E+01 0. -1.
</event>
<event>
 7    1  0.2537562E-007  0.1421067E+03  0.7546771E-02  0.1106105E+00
        -11   -1    0    0    0    0  0.00000000000E+00  0.00000000000E+00  0.18250000000E+03  0.18250000000E+03  0.00000000000E+00 0. -1.
         11   -1    0    0    0    0 -0.00000000000E+00 -0.00000000000E+00 -0.18250000000E+03  0.18250000000E+03  0.00000000000E+00 0.  1.
         23    2    1    2    0    0  0.71901807448E+01 -0.78236609188E+02  0.19390383980E+02  0.12376623166E+03  0.93645220869E+02 0.  0.
        -11    1    1    2    0    0 -0.13273270867E+02  0.12767784817E+03  0.64506632390E+02  0.14366251513E+03  0.00000000000E+00 0. -1.
         11    1    1    2    0    0  0.60830901226E+01 -0.49441238978E+02 -0.83897016370E+02  0.97571253210E+02  0.00000000000E+00 0.  1.
        -15    1    3    3    0    0  0.38178131619E+02 -0.35834862273E+02 -0.22051219512E+02  0.56842951182E+02  0.17770000000E+01 0. -1.
         15    1    3    3    0    0 -0.30987950874E+02 -0.42401746915E+02  0.41441603492E+02  0.66923280477E+02  0.17770000000E+01 0.  1.
</event>
<event>
 7    1  0.2537562E-007  0.1237474E+03  0.7546771E-02  0.1128111E+00
        -11   -1    0    0    0    0  0.00000000000E+00  0.00000000000E+00  0.18250000000E+03  0.18250000000E+03  0.00000000000E+00 0.  1.
         11   -1    0    0    0    0 -0.00000000000E+00 -0.00000000000E+00 -0.18250000000E+03  0.18250000000E+03  0.00000000000E+00 0.  1.
         23    2    1    2    0    0  0.60633152827E+01 -0.31530019651E+02  0.54930422876E+02  0.10945762100E+03  0.89065781905E+02 0.  0.
        -11    1    1    2    0    0 -0.11323087408E+03 -0.30477930436E+02  0.62706249992E+01  0.11742851368E+03  0.00000000000E+00 0.  1.
         11    1    1    2    0    0  0.10716755879E+03  0.62007950087E+02 -0.61201047875E+02  0.13811386532E+03  0.00000000000E+00 0.  1.
        -15    1    3    3    0    0  0.37511990268E+02 -0.45296475458E+02  0.25199525590E+02  0.64008545694E+02  0.17770000000E+01 0.  1.
         15    1    3    3    0    0 -0.31448674986E+02  0.13766455807E+02  0.29730897286E+02  0.45449075307E+02  0.17770000000E+01 0. -1.
</event>
<event>
 7    1  0.2537562E-007  0.1434911E+03  0.7546771E-02  0.1104595E+00
        -11   -1    0    0    0    0  0.00000000000E+00  0.00000000000E+00  0.18250000000E+03  0.18250000000E+03  0.00000000000E+00 0. -1.
         11   -1    0    0    0    0 -0.00000000000E+00 -0.00000000000E+00 -0.18250000000E+03  0.18250000000E+03  0.00000000000E+00 0.  1.
         23    2    1    2    0    0 -0.92793766421E+02  0.48228035581E+01 -0.72420553598E+01  0.14411802971E+03  0.10992550477E+03 0.  0.
        -11    1    1    2    0    0  0.31755204279E+02  0.37732184586E+02  0.94264150361E+02  0.10638534108E+03  0.00000000000E+00 0. -1.
         11    1    1    2    0    0  0.61038562141E+02 -0.42554988144E+02 -0.87022095001E+02  0.11449662922E+03  0.00000000000E+00 0.  1.
        -15    1    3    3    0    0 -0.12598197981E+02  0.88017140098E+01  0.45484146051E+02  0.48043210059E+02  0.17770000000E+01 0. -1.
         15    1    3    3    0    0 -0.80195568440E+02 -0.39789104516E+01 -0.52726201410E+02  0.96074819646E+02  0.17770000000E+01 0.  1.
</event>
<event>
 7    1  0.2537562E-007  0.1418583E+03  0.7546771E-02  0.1106378E+00
        -11   -1    0    0    0    0  0.00000000000E+00  0.00000000000E+00  0.18250000000E+03  0.18250000000E+03  0.00000000000E+00 0.  1.
         11   -1    0    0    0    0 -0.00000000000E+00 -0.00000000000E+00 -0.18250000000E+03  0.18250000000E+03  0.00000000000E+00 0. -1.
         23    2    1    2    0    0 -0.30070012560E+02 -0.10827090656E+02 -0.75981370243E+02  0.12306828054E+03  0.91384908514E+02 0.  0.
        -11    1    1    2    0    0 -0.37762344599E+02  0.54239408796E+02  0.12939341342E+03  0.14529474723E+03  0.00000000000E+00 0.  1.
         11    1    1    2    0    0  0.67832357159E+02 -0.43412318141E+02 -0.53412043180E+02  0.96636972225E+02  0.00000000000E+00 0. -1.
        -15    1    3    3    0    0 -0.46066688390E+02 -0.12917219634E+02 -0.26363437108E+01  0.47948955979E+02  0.17770000000E+01 0.  1.
         15    1    3    3    0    0  0.15996675830E+02  0.20901289779E+01 -0.73345026532E+02  0.75119324563E+02  0.17770000000E+01 0. -1.
</event>
<event>
 7    1  0.2537562E-007  0.1669089E+03  0.7546771E-02  0.1081590E+00
        -11   -1    0    0    0    0  0.00000000000E+00  0.00000000000E+00  0.18250000000E+03  0.18250000000E+03  0.00000000000E+00 0.  1.
         11   -1    0    0    0    0 -0.00000000000E+00 -0.00000000000E+00 -0.18250000000E+03  0.18250000000E+03  0.00000000000E+00 0. -1.
         23    2    1    2    0    0  0.44633566538E+01  0.12906187543E+02  0.15466387774E+03  0.18003324086E+03  0.91129366865E+02 0.  0.
        -11    1    1    2    0    0 -0.22860386486E+02  0.34870813806E+02 -0.33691078935E+02  0.53606526894E+02  0.00000000000E+00 0.  1.
         11    1    1    2    0    0  0.18397029833E+02 -0.47777001348E+02 -0.12097279881E+03  0.13136023225E+03  0.00000000000E+00 0. -1.
        -15    1    3    3    0    0  0.41068203249E+02  0.65607080406E+01  0.12709011401E+03  0.13373367197E+03  0.17770000000E+01 0.  1.
         15    1    3    3    0    0 -0.36604846596E+02  0.63454795019E+01  0.27573763730E+02  0.46299568893E+02  0.17770000000E+01 0. -1.
</event>
<event>
 7    1  0.2537562E-007  0.1552559E+03  0.7546771E-02  0.1092480E+00
        -11   -1    0    0    0    0  0.00000000000E+00  0.00000000000E+00  0.18250000000E+03  0.18250000000E+03  0.00000000000E+00 0.  1.
         11   -1    0    0    0    0 -0.00000000000E+00 -0.00000000000E+00 -0.18250000000E+03  0.18250000000E+03  0.00000000000E+00 0.  1.
         23    2    1    2    0    0  0.11912522994E+02  0.71811325348E+02  0.13744216911E+03  0.17948795933E+03  0.89592427363E+02 0.  0.
        -11    1    1    2    0    0 -0.47203149083E+02 -0.70649390643E+02 -0.72954351759E+02  0.11199022780E+03  0.00000000000E+00 0.  1.
         11    1    1    2    0    0  0.35290626088E+02 -0.11619347051E+01 -0.64487817351E+02  0.73521812876E+02  0.00000000000E+00 0.  1.
        -15    1    3    3    0    0 -0.31864191756E+02  0.16488653496E+02  0.16651805058E+02  0.39593468541E+02  0.17770000000E+01 0. -1.
         15    1    3    3    0    0  0.43776714751E+02  0.55322671852E+02  0.12079036405E+03  0.13989449078E+03  0.17770000000E+01 0.  1.
</event>
<event>
 7    1  0.2537562E-007  0.1456418E+03  0.7546771E-02  0.1102287E+00
        -11   -1    0    0    0    0  0.00000000000E+00  0.00000000000E+00  0.18250000000E+03  0.18250000000E+03  0.00000000000E+00 0. -1.
         11   -1    0    0    0    0 -0.00000000000E+00 -0.00000000000E+00 -0.18250000000E+03  0.18250000000E+03  0.00000000000E+00 0. -1.
         23    2    1    2    0    0 -0.40657944617E+02 -0.99590529310E+02 -0.24908188634E+02  0.14210213656E+03  0.89449747702E+02 0.  0.
        -11    1    1    2    0    0 -0.19035786462E+02  0.95270848280E+02  0.91433322921E+02  0.13341269894E+03  0.00000000000E+00 0. -1.
         11    1    1    2    0    0  0.59693731079E+02  0.43196810304E+01 -0.66525134287E+02  0.89485164504E+02  0.00000000000E+00 0. -1.
        -15    1    3    3    0    0 -0.41337099365E+02 -0.13451220281E+01 -0.11210434495E+02  0.42888188441E+02  0.17770000000E+01 0.  1.
         15    1    3    3    0    0  0.67915474784E+00 -0.98245407282E+02 -0.13697754139E+02  0.99213948115E+02  0.17770000000E+01 0. -1.
</event>
<event>
 7    1  0.2537562E-007  0.1910078E+03  0.7546771E-02  0.1061877E+00
        -11   -1    0    0    0    0  0.00000000000E+00  0.00000000000E+00  0.18250000000E+03  0.18250000000E+03  0.00000000000E+00 0. -1.
         11   -1    0    0    0    0 -0.00000000000E+00 -0.00000000000E+00 -0.18250000000E+03  0.18250000000E+03  0.00000000000E+00 0.  1.
         23    2    1    2    0    0 -0.10918250630E+03  0.23096596255E+02 -0.12489652938E+03  0.19124152438E+03  0.92303332309E+02 0.  0.
        -11    1    1    2    0    0  0.10850366792E+03 -0.16508588595E+02  0.12594177147E+03  0.16705361190E+03  0.00000000000E+00 0. -1.
         11    1    1    2    0    0  0.67883838146E+00 -0.65880076599E+01 -0.10452420960E+01  0.67048637207E+01  0.00000000000E+00 0.  1.
        -15    1    3    3    0    0 -0.96195718747E+02 -0.20992551070E+02 -0.78807244991E+02  0.12612709105E+03  0.17770000000E+01 0.  1.
         15    1    3    3    0    0 -0.12986787551E+02  0.44089147325E+02 -0.46089284384E+02  0.65114433322E+02  0.17770000000E+01 0. -1.
</event>
<event>
 7    1  0.2537562E-007  0.1873950E+03  0.7546771E-02  0.1064624E+00
        -11   -1    0    0    0    0  0.00000000000E+00  0.00000000000E+00  0.18250000000E+03  0.18250000000E+03  0.00000000000E+00 0. -1.
         11   -1    0    0    0    0 -0.00000000000E+00 -0.00000000000E+00 -0.18250000000E+03  0.18250000000E+03  0.00000000000E+00 0.  1.
         23    2    1    2    0    0  0.65497267954E+02  0.14562571736E+03  0.52251431318E+01  0.18321764166E+03  0.89692031011E+02 0.  0.
        -11    1    1    2    0    0 -0.71347976878E+02 -0.15310511815E+03  0.34094086179E+01  0.16894772882E+03  0.00000000000E+00 0.  1.
         11    1    1    2    0    0  0.58507089238E+01  0.74794007840E+01 -0.86345517497E+01  0.12834629520E+02  0.00000000000E+00 0. -1.
        -15    1    3    3    0    0 -0.59329882117E+01  0.11237076157E+02 -0.24946689409E+02  0.28052936944E+02  0.17770000000E+01 0.  1.
         15    1    3    3    0    0  0.71430256166E+02  0.13438864121E+03  0.30171832541E+02  0.15516470471E+03  0.17770000000E+01 0. -1.
</event>
<event>
 7    1  0.2537562E-007  0.1368254E+03  0.7546771E-02  0.1112042E+00
        -11   -1    0    0    0    0  0.00000000000E+00  0.00000000000E+00  0.18250000000E+03  0.18250000000E+03  0.00000000000E+00 0. -1.
         11   -1    0    0    0    0 -0.00000000000E+00 -0.00000000000E+00 -0.18250000000E+03  0.18250000000E+03  0.00000000000E+00 0.  1.
         23    2    1    2    0    0  0.87069457740E+01 -0.44713001036E+02 -0.52754899783E+02  0.11483077763E+03  0.91257682818E+02 0.  0.
        -11    1    1    2    0    0  0.96150056860E+01  0.31259778388E+00  0.14545047696E+03  0.14576826575E+03  0.00000000000E+00 0. -1.
         11    1    1    2    0    0 -0.18321951460E+02  0.44400403252E+02 -0.92695577180E+02  0.10440095662E+03  0.00000000000E+00 0.  1.
        -15    1    3    3    0    0 -0.10414685084E+02  0.26126439515E+02 -0.19381768212E+02  0.34203321113E+02  0.17770000000E+01 0. -1.
         15    1    3    3    0    0  0.19121630858E+02 -0.70839440552E+02 -0.33373131571E+02  0.80627456516E+02  0.17770000000E+01 0.  1.
</event>
<event>
 7    1  0.2537562E-007  0.1579952E+03  0.7546771E-02  0.1089828E+00
        -11   -1    0    0    0    0  0.00000000000E+00  0.00000000000E+00  0.18250000000E+03  0.18250000000E+03  0.00000000000E+00 0.  1.
         11   -1    0    0    0    0 -0.00000000000E+00 -0.00000000000E+00 -0.18250000000E+03  0.18250000000E+03  0.00000000000E+00 0. -1.
         23    2    1    2    0    0 -0.43417498938E+02 -0.13067266112E+03 -0.53424184537E+02  0.17226841816E+03  0.88667022181E+02 0.  0.
        -11    1    1    2    0    0 -0.24282749326E+02  0.26344600622E+02  0.58117520062E+02  0.68273977729E+02  0.00000000000E+00 0.  1.
         11    1    1    2    0    0  0.67700248264E+02  0.10432806050E+03 -0.46933355245E+01  0.12445760411E+03  0.00000000000E+00 0. -1.
        -15    1    3    3    0    0 -0.28625802055E+02 -0.13237705265E+03 -0.21695814486E+02  0.13717502217E+03  0.17770000000E+01 0. -1.
         15    1    3    3    0    0 -0.14791696882E+02  0.17043915259E+01 -0.31728370051E+02  0.35093395992E+02  0.17770000000E+01 0.  1.
</event>
<event>
 7    1  0.2537562E-007  0.1914374E+03  0.7546771E-02  0.1061555E+00
        -11   -1    0    0    0    0  0.00000000000E+00  0.00000000000E+00  0.18250000000E+03  0.18250000000E+03  0.00000000000E+00 0.  1.
         11   -1    0    0    0    0 -0.00000000000E+00 -0.00000000000E+00 -0.18250000000E+03  0.18250000000E+03  0.00000000000E+00 0. -1.
         23    2    1    2    0    0 -0.38073449114E+02 -0.51037100444E+02  0.15558518669E+03  0.19143735121E+03  0.91581307997E+02 0.  0.
        -11    1    1    2    0    0  0.12183444175E+02  0.28286123507E+01 -0.52254977191E+01  0.13555190379E+02  0.00000000000E+00 0.  1.
         11    1    1    2    0    0  0.25890004939E+02  0.48208488094E+02 -0.15035968897E+03  0.16000745841E+03  0.00000000000E+00 0. -1.
        -15    1    3    3    0    0 -0.32451983048E+02 -0.12393513117E+02  0.41405402744E+01  0.35029019025E+02  0.17770000000E+01 0.  1.
         15    1    3    3    0    0 -0.56214660660E+01 -0.38643587327E+02  0.15144464641E+03  0.15640833219E+03  0.17770000000E+01 0. -1.
</event>
<event>
 7    1  0.2537562E-007  0.1659360E+03  0.7546771E-02  0.1082462E+00
        -11   -1    0    0    0    0  0.00000000000E+00  0.00000000000E+00  0.18250000000E+03  0.18250000000E+03  0.00000000000E+00 0.  1.
         11   -1    0    0    0    0 -0.00000000000E+00 -0.00000000000E+00 -0.18250000000E+03  0.18250000000E+03  0.00000000000E+00 0.  1.
         23    2    1    2    0    0 -0.82233811214E+02 -0.52321545308E+02  0.10698691760E+03  0.17180364324E+03  0.92576171239E+02 0.  0.
        -11    1    1    2    0    0  0.54100624773E+02 -0.41216310420E+01  0.14634226202E+02  0.56196316782E+02  0.00000000000E+00 0.  1.
         11    1    1    2    0    0  0.28133186440E+02  0.56443176350E+02 -0.12162114380E+03  0.13700003998E+03  0.00000000000E+00 0.  1.
        -15    1    3    3    0    0 -0.52841005884E+02 -0.62824910820E+02  0.11328343292E+03  0.13991224116E+03  0.17770000000E+01 0.  1.
         15    1    3    3    0    0 -0.29392805330E+02  0.10503365512E+02 -0.62965153226E+01  0.31891402077E+02  0.17770000000E+01 0. -1.
</event>
<event>
 7    1  0.2537562E-007  0.1703709E+03  0.7546771E-02  0.1078542E+00
        -11   -1    0    0    0    0  0.00000000000E+00  0.00000000000E+00  0.18250000000E+03  0.18250000000E+03  0.00000000000E+00 0. -1.
         11   -1    0    0    0    0 -0.00000000000E+00 -0.00000000000E+00 -0.18250000000E+03  0.18250000000E+03  0.00000000000E+00 0.  1.
         23    2    1    2    0    0  0.58478390981E+02  0.77327680214E+02  0.88499515848E+02  0.15995166283E+03  0.91395173813E+02 0.  0.
        -11    1    1    2    0    0  0.24128270283E+02 -0.22240373512E+02  0.34073890027E+02  0.47305788466E+02  0.00000000000E+00 0. -1.
         11    1    1    2    0    0 -0.82606661265E+02 -0.55087306702E+02 -0.12257340588E+03  0.15774254871E+03  0.00000000000E+00 0.  1.
        -15    1    3    3    0    0  0.21397485118E+02  0.86859211751E+02  0.81423242179E+02  0.12097634947E+03  0.17770000000E+01 0. -1.
         15    1    3    3    0    0  0.37080905863E+02 -0.95315315363E+01  0.70762736689E+01  0.38975313355E+02  0.17770000000E+01 0.  1.
</event>
<event>
 7    1  0.2537562E-007  0.1360889E+03  0.7546771E-02  0.1112893E+00
        -11   -1    0    0    0    0  0.00000000000E+00  0.00000000000E+00  0.18250000000E+03  0.18250000000E+03  0.00000000000E+00 0.  1.
         11   -1    0    0    0    0 -0.00000000000E+00 -0.00000000000E+00 -0.18250000000E+03  0.18250000000E+03  0.00000000000E+00 0. -1.
         23    2    1    2    0    0  0.43940991345E+02  0.53731704304E+02 -0.17646654706E+02  0.11455707696E+03  0.89409242768E+02 0.  0.
        -11    1    1    2    0    0 -0.82222382915E+01 -0.10437537061E+03  0.10173450621E+03  0.14598538608E+03  0.00000000000E+00 0.  1.
         11    1    1    2    0    0 -0.35718753053E+02  0.50643666309E+02 -0.84087851506E+02  0.10445753696E+03  0.00000000000E+00 0. -1.
        -15    1    3    3    0    0  0.38568060092E+00  0.67456974780E+02 -0.11146294844E+02  0.68395831845E+02  0.17770000000E+01 0.  1.
         15    1    3    3    0    0  0.43555310744E+02 -0.13725270476E+02 -0.65003598621E+01  0.46161245119E+02  0.17770000000E+01 0. -1.
</event>
<event>
 7    1  0.2537562E-007  0.1604259E+03  0.7546771E-02  0.1087524E+00
        -11   -1    0    0    0    0  0.00000000000E+00  0.00000000000E+00  0.18250000000E+03  0.18250000000E+03  0.00000000000E+00 0.  1.
         11   -1    0    0    0    0 -0.00000000000E+00 -0.00000000000E+00 -0.18250000000E+03  0.18250000000E+03  0.00000000000E+00 0.  1.
         23    2    1    2    0    0  0.47269641747E+02 -0.28500535800E+02  0.13462320501E+03  0.17099179150E+03  0.89822524245E+02 0.  0.
        -11    1    1    2    0    0 -0.91905648338E+02  0.15459581788E+02 -0.89755109732E+02  0.12938943770E+03  0.00000000000E+00 0.  1.
         11    1    1    2    0    0  0.44636006591E+02  0.13040954012E+02 -0.44868095276E+02  0.64618770800E+02  0.00000000000E+00 0.  1.
        -15    1    3    3    0    0  0.35109275514E+02 -0.37551001010E+02  0.14411421635E+03  0.15301896610E+03  0.17770000000E+01 0.  1.
         15    1    3    3    0    0  0.12160366233E+02  0.90504652096E+01 -0.94910113423E+01  0.17972825396E+02  0.17770000000E+01 0. -1.
</event>
<event>
 7    1  0.2537562E-007  0.1319505E+03  0.7546771E-02  0.1117791E+00
        -11   -1    0    0    0    0  0.00000000000E+00  0.00000000000E+00  0.18250000000E+03  0.18250000000E+03  0.00000000000E+00 0.  1.
         11   -1    0    0    0    0 -0.00000000000E+00 -0.00000000000E+00 -0.18250000000E+03  0.18250000000E+03  0.00000000000E+00 0. -1.
         23    2    1    2    0    0  0.21315003383E+02  0.74393861163E+01 -0.80539907254E+01  0.10001261033E+03  0.97097794122E+02 0.  0.
        -11    1    1    2    0    0  0.44943068467E+02 -0.46873049239E+02  0.11563938602E+03  0.13262514749E+03  0.00000000000E+00 0.  1.
         11    1    1    2    0    0 -0.66258071850E+02  0.39433663123E+02 -0.10758539530E+03  0.13236224218E+03  0.00000000000E+00 0. -1.
        -15    1    3    3    0    0  0.28132003703E+02 -0.13161494658E+02  0.37977057430E+02  0.49092251873E+02  0.17770000000E+01 0.  1.
         15    1    3    3    0    0 -0.68170003196E+01  0.20600880774E+02 -0.46031048155E+02  0.50920358456E+02  0.17770000000E+01 0. -1.
</event>
<event>
 7    1  0.2537562E-007  0.1685981E+03  0.7546771E-02  0.1080093E+00
        -11   -1    0    0    0    0  0.00000000000E+00  0.00000000000E+00  0.18250000000E+03  0.18250000000E+03  0.00000000000E+00 0. -1.
         11   -1    0    0    0    0 -0.00000000000E+00 -0.00000000000E+00 -0.18250000000E+03  0.18250000000E+03  0.00000000000E+00 0. -1.
         23    2    1    2    0    0  0.67685887554E+01 -0.18552713763E+02  0.13935829448E+03  0.16625420008E+03  0.88485636259E+02 0.  0.
        -11    1    1    2    0    0  0.45663775970E+02 -0.17508227157E+02 -0.38708457722E+01  0.49058148161E+02  0.00000000000E+00 0. -1.
         11    1    1    2    0    0 -0.52432364726E+02  0.36060940920E+02 -0.13548744871E+03  0.14968765175E+03  0.00000000000E+00 0. -1.
        -15    1    3    3    0    0 -0.30633281089E+02  0.20223470521E+02  0.55355149578E+02  0.66443487145E+02  0.17770000000E+01 0.  1.
         15    1    3    3    0    0  0.37401869844E+02 -0.38776184284E+02  0.84003144900E+02  0.99810712939E+02  0.17770000000E+01 0. -1.
</event>
<event>
 6    1  0.2972338E-007  0.1419011E+03  0.7546771E-02  0.1106330E+00
        -11   -1    0    0    0    0  0.00000000000E+00  0.00000000000E+00  0.18250000000E+03  0.18250000000E+03  0.00000000000E+00 0. -1.
         11   -1    0    0    0    0 -0.00000000000E+00 -0.00000000000E+00 -0.18250000000E+03  0.18250000000E+03  0.00000000000E+00 0. -1.
        -11    1    1    2    0    0  0.35347168231E+02 -0.27149804803E+02  0.15037901196E+02  0.47039054786E+02  0.00000000000E+00 0. -1.
         11    1    1    2    0    0 -0.10161212421E+03  0.44905576256E+01 -0.10272327705E+03  0.14455884803E+03  0.00000000000E+00 0. -1.
        -15    1    1    2    0    0  0.83170522616E+02  0.34360001570E+02  0.11057976401E+03  0.14257975830E+03  0.17770000000E+01 0. -1.
         15    1    1    2    0    0 -0.16905566635E+02 -0.11700754393E+02 -0.22894388150E+02  0.30822338886E+02  0.17770000000E+01 0.  1.
</event>
<event>
 7    1  0.2537562E-007  0.1339813E+03  0.7546771E-02  0.1115363E+00
        -11   -1    0    0    0    0  0.00000000000E+00  0.00000000000E+00  0.18250000000E+03  0.18250000000E+03  0.00000000000E+00 0. -1.
         11   -1    0    0    0    0 -0.00000000000E+00 -0.00000000000E+00 -0.18250000000E+03  0.18250000000E+03  0.00000000000E+00 0. -1.
         23    2    1    2    0    0  0.41988482062E+02  0.27213577231E+02 -0.61447755641E+02  0.12274713929E+03  0.93741250899E+02 0.  0.
        -11    1    1    2    0    0  0.10918649903E+02  0.93676961340E+02  0.57039347697E+02  0.11021831602E+03  0.00000000000E+00 0. -1.
         11    1    1    2    0    0 -0.52907131965E+02 -0.12089053857E+03  0.44084079441E+01  0.13203454468E+03  0.00000000000E+00 0. -1.
        -15    1    3    3    0    0  0.24114060045E+01  0.44617283775E+02  0.33351964290E+01  0.44841924074E+02  0.17770000000E+01 0.  1.
         15    1    3    3    0    0  0.39577076057E+02 -0.17403706544E+02 -0.64782952070E+02  0.77905215221E+02  0.17770000000E+01 0. -1.
</event>
<event>
 7    1  0.2537562E-007  0.1407581E+03  0.7546771E-02  0.1107593E+00
        -11   -1    0    0    0    0  0.00000000000E+00  0.00000000000E+00  0.18250000000E+03  0.18250000000E+03  0.00000000000E+00 0.  1.
         11   -1    0    0    0    0 -0.00000000000E+00 -0.00000000000E+00 -0.18250000000E+03  0.18250000000E+03  0.00000000000E+00 0. -1.
         23    2    1    2    0    0  0.69456690975E+00  0.41396175792E+02  0.71432515815E+02  0.12043503938E+03  0.87680491561E+02 0.  0.
        -11    1    1    2    0    0  0.89389445708E+02  0.10989300799E+02  0.34054008291E+02  0.96285581562E+02  0.00000000000E+00 0.  1.
         11    1    1    2    0    0 -0.90084012618E+02 -0.52385476591E+02 -0.10548652411E+03  0.14827937906E+03  0.00000000000E+00 0. -1.
        -15    1    3    3    0    0  0.98100575929E+01  0.62257000586E+02  0.74271230017E+02  0.97424558964E+02  0.17770000000E+01 0.  1.
         15    1    3    3    0    0 -0.91154906831E+01 -0.20860824794E+02 -0.28387142023E+01  0.23010480412E+02  0.17770000000E+01 0. -1.
</event>
<event>
 7    1  0.2537562E-007  0.1586569E+03  0.7546771E-02  0.1089196E+00
        -11   -1    0    0    0    0  0.00000000000E+00  0.00000000000E+00  0.18250000000E+03  0.18250000000E+03  0.00000000000E+00 0.  1.
         11   -1    0    0    0    0 -0.00000000000E+00 -0.00000000000E+00 -0.18250000000E+03  0.18250000000E+03  0.00000000000E+00 0. -1.
         23    2    1    2    0    0  0.15377625329E+01 -0.51644966160E+02  0.10388071850E+03  0.14082135343E+03  0.79811544661E+02 0.  0.
        -11    1    1    2    0    0 -0.45581193235E+02  0.85569186582E+00  0.42984697944E+02  0.62658292688E+02  0.00000000000E+00 0.  1.
         11    1    1    2    0    0  0.44043430702E+02  0.50789274294E+02 -0.14686541645E+03  0.16152035388E+03  0.00000000000E+00 0. -1.
        -15    1    3    3    0    0  0.67019799404E+01 -0.22630252884E+02 -0.80981967304E+01  0.25015663094E+02  0.17770000000E+01 0. -1.
         15    1    3    3    0    0 -0.51642174074E+01 -0.29014713276E+02  0.11197891523E+03  0.11580569033E+03  0.17770000000E+01 0.  1.
</event>
<event>
 7    1  0.2537562E-007  0.1643387E+03  0.7546771E-02  0.1083907E+00
        -11   -1    0    0    0    0  0.00000000000E+00  0.00000000000E+00  0.18250000000E+03  0.18250000000E+03  0.00000000000E+00 0.  1.
         11   -1    0    0    0    0 -0.00000000000E+00 -0.00000000000E+00 -0.18250000000E+03  0.18250000000E+03  0.00000000000E+00 0.  1.
         23    2    1    2    0    0  0.43670477654E+01 -0.21160557397E+02  0.12002963087E+03  0.15283465991E+03  0.92111240829E+02 0.  0.
        -11    1    1    2    0    0  0.46916453000E+02  0.25852950495E+02  0.24374944214E+02  0.58852922755E+02  0.00000000000E+00 0.  1.
         11    1    1    2    0    0 -0.51283500765E+02 -0.46923930978E+01 -0.14440457509E+03  0.15331241734E+03  0.00000000000E+00 0.  1.
        -15    1    3    3    0    0 -0.33072359329E+02 -0.21743661076E+02  0.16845455011E+02  0.43052233764E+02  0.17770000000E+01 0. -1.
         15    1    3    3    0    0  0.37439407094E+02  0.58310367851E+00  0.10318417586E+03  0.10978242615E+03  0.17770000000E+01 0.  1.
</event>
<event>
 7    1  0.2537562E-007  0.1936224E+03  0.7546771E-02  0.1059931E+00
        -11   -1    0    0    0    0  0.00000000000E+00  0.00000000000E+00  0.18250000000E+03  0.18250000000E+03  0.00000000000E+00 0.  1.
         11   -1    0    0    0    0 -0.00000000000E+00 -0.00000000000E+00 -0.18250000000E+03  0.18250000000E+03  0.00000000000E+00 0. -1.
         23    2    1    2    0    0  0.54469129597E+01 -0.20549572779E+02  0.16936868376E+03  0.19362238541E+03  0.91388857585E+02 0.  0.
        -11    1    1    2    0    0  0.34847397320E+01  0.13182337140E+02 -0.11391630224E+03  0.11472942665E+03  0.00000000000E+00 0. -1.
         11    1    1    2    0    0 -0.89316526917E+01  0.73672356393E+01 -0.55452381524E+02  0.56648187945E+02  0.00000000000E+00 0.  1.
        -15    1    3    3    0    0 -0.22880128893E+02 -0.28281655216E+02  0.15790441882E+03  0.16205034875E+03  0.17770000000E+01 0.  1.
         15    1    3    3    0    0  0.28327041853E+02  0.77320824376E+01  0.11464264944E+02  0.31572036657E+02  0.17770000000E+01 0. -1.
</event>
<event>
 7    1  0.2537562E-007  0.2145197E+03  0.7546771E-02  0.1045487E+00
        -11   -1    0    0    0    0  0.00000000000E+00  0.00000000000E+00  0.18250000000E+03  0.18250000000E+03  0.00000000000E+00 0.  1.
         11   -1    0    0    0    0 -0.00000000000E+00 -0.00000000000E+00 -0.18250000000E+03  0.18250000000E+03  0.00000000000E+00 0. -1.
         23    2    1    2    0    0 -0.37412071580E+02 -0.61989765687E+01  0.59762155428E+01  0.95901430766E+02  0.87882187389E+02 0.  0.
        -11    1    1    2    0    0 -0.82263041923E+02  0.59673073833E+01  0.85249506763E+02  0.11861827527E+03  0.00000000000E+00 0.  1.
         11    1    1    2    0    0  0.11967511350E+03  0.23166918545E+00 -0.91225722305E+02  0.15048029397E+03  0.00000000000E+00 0. -1.
        -15    1    3    3    0    0 -0.49811682986E+02  0.19747333645E+02  0.27198594877E+02  0.60117237463E+02  0.17770000000E+01 0. -1.
         15    1    3    3    0    0  0.12399611406E+02 -0.25946310213E+02 -0.21222379334E+02  0.35784193303E+02  0.17770000000E+01 0.  1.
</event>
<event>
 7    1  0.2537562E-007  0.1581053E+03  0.7546771E-02  0.1089723E+00
        -11   -1    0    0    0    0  0.00000000000E+00  0.00000000000E+00  0.18250000000E+03  0.18250000000E+03  0.00000000000E+00 0.  1.
         11   -1    0    0    0    0 -0.00000000000E+00 -0.00000000000E+00 -0.18250000000E+03  0.18250000000E+03  0.00000000000E+00 0. -1.
         23    2    1    2    0    0 -0.13915092115E+03 -0.42213981192E+02 -0.28173313011E+02  0.17525944926E+03  0.93686391343E+02 0.  0.
        -11    1    1    2    0    0  0.90466557944E+02  0.19775979984E+02  0.74530563153E+02  0.11887006492E+03  0.00000000000E+00 0.  1.
         11    1    1    2    0    0  0.48684363210E+02  0.22438001208E+02 -0.46357250142E+02  0.70870485818E+02  0.00000000000E+00 0. -1.
        -15    1    3    3    0    0 -0.12806590127E+03 -0.10250763248E+01 -0.33084809482E+02  0.13228638704E+03  0.17770000000E+01 0. -1.
         15    1    3    3    0    0 -0.11085019889E+02 -0.41188904867E+02  0.49114964710E+01  0.42973062221E+02  0.17770000000E+01 0.  1.
</event>
<event>
 7    1  0.2537562E-007  0.1461067E+03  0.7546771E-02  0.1101794E+00
        -11   -1    0    0    0    0  0.00000000000E+00  0.00000000000E+00  0.18250000000E+03  0.18250000000E+03  0.00000000000E+00 0. -1.
         11   -1    0    0    0    0 -0.00000000000E+00 -0.00000000000E+00 -0.18250000000E+03  0.18250000000E+03  0.00000000000E+00 0. -1.
         23    2    1    2    0    0  0.14390373801E+02 -0.33965905226E+02  0.11308742073E+03  0.14917977190E+03  0.90028184694E+02 0.  0.
        -11    1    1    2    0    0 -0.25255662738E+00  0.89053449935E+02  0.20490040839E+00  0.89054043784E+02  0.00000000000E+00 0. -1.
         11    1    1    2    0    0 -0.14137817174E+02 -0.55087544709E+02 -0.11329232114E+03  0.12676618432E+03  0.00000000000E+00 0. -1.
        -15    1    3    3    0    0  0.39418749402E+01  0.28788619134E+02  0.16362597638E+02  0.33394839424E+02  0.17770000000E+01 0.  1.
         15    1    3    3    0    0  0.10448498861E+02 -0.62754524360E+02  0.96724823096E+02  0.11578493247E+03  0.17770000000E+01 0. -1.
</event>
<event>
 7    1  0.2537562E-007  0.2155847E+03  0.7546771E-02  0.1044799E+00
        -11   -1    0    0    0    0  0.00000000000E+00  0.00000000000E+00  0.18250000000E+03  0.18250000000E+03  0.00000000000E+00 0.  1.
         11   -1    0    0    0    0 -0.00000000000E+00 -0.00000000000E+00 -0.18250000000E+03  0.18250000000E+03  0.00000000000E+00 0.  1.
         23    2    1    2    0    0  0.83612401425E+01 -0.26231661372E+02  0.41202544265E+02  0.10728860484E+03  0.95158734119E+02 0.  0.
        -11    1    1    2    0    0 -0.55304480515E+02 -0.43497198205E+02  0.82325338570E+02  0.10829613653E+03  0.00000000000E+00 0.  1.
         11    1    1    2    0    0  0.46943240373E+02  0.69728859577E+02 -0.12352788283E+03  0.14941525863E+03  0.00000000000E+00 0.  1.
        -15    1    3    3    0    0 -0.11593673859E+02 -0.45747148719E+02  0.57897941570E+02  0.74716425614E+02  0.17770000000E+01 0.  1.
         15    1    3    3    0    0  0.19954914002E+02  0.19515487347E+02 -0.16695397305E+02  0.32572179224E+02  0.17770000000E+01 0. -1.
</event>
<event>
 7    1  0.2537562E-007  0.1360238E+03  0.7546771E-02  0.1112969E+00
        -11   -1    0    0    0    0  0.00000000000E+00  0.00000000000E+00  0.18250000000E+03  0.18250000000E+03  0.00000000000E+00 0.  1.
         11   -1    0    0    0    0 -0.00000000000E+00 -0.00000000000E+00 -0.18250000000E+03  0.18250000000E+03  0.00000000000E+00 0. -1.
         23    2    1    2    0    0  0.28487051180E+02  0.89925836360E+01 -0.67195905935E+02  0.11722632197E+03  0.91292618230E+02 0.  0.
        -11    1    1    2    0    0  0.44610126544E+02 -0.66297489221E+02  0.11753603814E+03  0.14212719912E+03  0.00000000000E+00 0.  1.
         11    1    1    2    0    0 -0.73097177724E+02  0.57304905585E+02 -0.50340132207E+02  0.10564647891E+03  0.00000000000E+00 0. -1.
        -15    1    3    3    0    0 -0.22774859599E+02 -0.72788717583E+01 -0.57833398616E+02  0.62606197204E+02  0.17770000000E+01 0. -1.
         15    1    3    3    0    0  0.51261910780E+02  0.16271455394E+02 -0.93625073186E+01  0.54620124768E+02  0.17770000000E+01 0.  1.
</event>
<event>
 7    1  0.2537562E-007  0.1411513E+03  0.7546771E-02  0.1107157E+00
        -11   -1    0    0    0    0  0.00000000000E+00  0.00000000000E+00  0.18250000000E+03  0.18250000000E+03  0.00000000000E+00 0.  1.
         11   -1    0    0    0    0 -0.00000000000E+00 -0.00000000000E+00 -0.18250000000E+03  0.18250000000E+03  0.00000000000E+00 0.  1.
         23    2    1    2    0    0  0.96579720726E+02  0.83560364819E+01  0.35050639879E+02  0.13811912193E+03  0.91928660851E+02 0.  0.
        -11    1    1    2    0    0 -0.50171231505E+02  0.10928212860E+02  0.83552660533E+02  0.98069492652E+02  0.00000000000E+00 0.  1.
         11    1    1    2    0    0 -0.46408489222E+02 -0.19284249342E+02 -0.11860330041E+03  0.12881138542E+03  0.00000000000E+00 0.  1.
        -15    1    3    3    0    0  0.84345670412E+02  0.14750210934E+01  0.63995978619E+02  0.10590094812E+03  0.17770000000E+01 0.  1.
         15    1    3    3    0    0  0.12234050314E+02  0.68810153884E+01 -0.28945338741E+02  0.32218173810E+02  0.17770000000E+01 0. -1.
</event>
<event>
 7    1  0.2537562E-007  0.1623256E+03  0.7546771E-02  0.1085754E+00
        -11   -1    0    0    0    0  0.00000000000E+00  0.00000000000E+00  0.18250000000E+03  0.18250000000E+03  0.00000000000E+00 0. -1.
         11   -1    0    0    0    0 -0.00000000000E+00 -0.00000000000E+00 -0.18250000000E+03  0.18250000000E+03  0.00000000000E+00 0. -1.
         23    2    1    2    0    0 -0.33972158175E+02  0.14366846875E+02  0.10485950709E+03  0.14369009510E+03  0.91053903718E+02 0.  0.
        -11    1    1    2    0    0  0.18758903740E+02  0.38386657751E+02  0.44794254410E+02  0.61902804387E+02  0.00000000000E+00 0. -1.
         11    1    1    2    0    0  0.15213254435E+02 -0.52753504626E+02 -0.14965376150E+03  0.15940710051E+03  0.00000000000E+00 0. -1.
        -15    1    3    3    0    0 -0.31577577076E+02  0.27723990678E+02  0.11765982650E+03  0.12495101254E+03  0.17770000000E+01 0. -1.
         15    1    3    3    0    0 -0.23945810983E+01 -0.13357143803E+02 -0.12800319410E+02  0.18739082561E+02  0.17770000000E+01 0.  1.
</event>
<event>
 7    1  0.2537562E-007  0.1471118E+03  0.7546771E-02  0.1100735E+00
        -11   -1    0    0    0    0  0.00000000000E+00  0.00000000000E+00  0.18250000000E+03  0.18250000000E+03  0.00000000000E+00 0.  1.
         11   -1    0    0    0    0 -0.00000000000E+00 -0.00000000000E+00 -0.18250000000E+03  0.18250000000E+03  0.00000000000E+00 0.  1.
         23    2    1    2    0    0 -0.22686838979E+02 -0.13210998600E+03  0.70515417685E+02  0.17760110528E+03  0.92746899693E+02 0.  0.
        -11    1    1    2    0    0 -0.88010111102E+01  0.97893711325E+02  0.53310784851E+01  0.98433007225E+02  0.00000000000E+00 0.  1.
         11    1    1    2    0    0  0.31487850090E+02  0.34216274676E+02 -0.75846496170E+02  0.88965887492E+02  0.00000000000E+00 0.  1.
        -15    1    3    3    0    0 -0.40646881793E+01 -0.14093009488E+03  0.68682317311E+02  0.15683823441E+03  0.17770000000E+01 0.  1.
         15    1    3    3    0    0 -0.18622150800E+02  0.88201088761E+01  0.18331003737E+01  0.20762870875E+02  0.17770000000E+01 0. -1.
</event>
<event>
 7    1  0.2537562E-007  0.1718465E+03  0.7546771E-02  0.1077266E+00
        -11   -1    0    0    0    0  0.00000000000E+00  0.00000000000E+00  0.18250000000E+03  0.18250000000E+03  0.00000000000E+00 0. -1.
         11   -1    0    0    0    0 -0.00000000000E+00 -0.00000000000E+00 -0.18250000000E+03  0.18250000000E+03  0.00000000000E+00 0. -1.
         23    2    1    2    0    0 -0.43176820345E+02  0.72519070263E+02 -0.11252860806E+03  0.16776763233E+03  0.91433240459E+02 0.  0.
        -11    1    1    2    0    0  0.45451313304E+02 -0.11239750909E+03  0.92822131851E+02  0.15269240352E+03  0.00000000000E+00 0. -1.
         11    1    1    2    0    0 -0.22744929585E+01  0.39878438829E+02  0.19706476207E+02  0.44539964146E+02  0.00000000000E+00 0. -1.
        -15    1    3    3    0    0  0.96563726359E+01  0.27438689440E+02  0.65815703671E+01  0.29876445709E+02  0.17770000000E+01 0.  1.
         15    1    3    3    0    0 -0.52833192981E+02  0.45080380823E+02 -0.11911017843E+03  0.13789118663E+03  0.17770000000E+01 0. -1.
</event>
<event>
 7    1  0.2537562E-007  0.1324939E+03  0.7546771E-02  0.1117136E+00
        -11   -1    0    0    0    0  0.00000000000E+00  0.00000000000E+00  0.18250000000E+03  0.18250000000E+03  0.00000000000E+00 0. -1.
         11   -1    0    0    0    0 -0.00000000000E+00 -0.00000000000E+00 -0.18250000000E+03  0.18250000000E+03  0.00000000000E+00 0. -1.
         23    2    1    2    0    0 -0.36968159716E+02  0.12960904024E+02 -0.69820667134E+02  0.12131632449E+03  0.91148752942E+02 0.  0.
        -11    1    1    2    0    0 -0.30878071644E+01  0.85411894210E+02  0.10164593801E+03  0.13280294778E+03  0.00000000000E+00 0. -1.
         11    1    1    2    0    0  0.40055966881E+02 -0.98372798235E+02 -0.31825270875E+02  0.11088072773E+03  0.00000000000E+00 0. -1.
        -15    1    3    3    0    0 -0.39216310351E+01 -0.37565473820E+02 -0.18680060612E+02  0.42174001550E+02  0.17770000000E+01 0. -1.
         15    1    3    3    0    0 -0.33046528681E+02  0.50526377844E+02 -0.51140606523E+02  0.79142322940E+02  0.17770000000E+01 0.  1.
</event>
<event>
 7    1  0.2537562E-007  0.1879131E+03  0.7546771E-02  0.1064226E+00
        -11   -1    0    0    0    0  0.00000000000E+00  0.00000000000E+00  0.18250000000E+03  0.18250000000E+03  0.00000000000E+00 0.  1.
         11   -1    0    0    0    0 -0.00000000000E+00 -0.00000000000E+00 -0.18250000000E+03  0.18250000000E+03  0.00000000000E+00 0. -1.
         23    2    1    2    0    0 -0.15226063800E+03 -0.59643423889E+02 -0.24552820724E+02  0.18841948713E+03  0.90323984772E+02 0.  0.
        -11    1    1    2    0    0  0.15381592294E+03  0.49431189820E+02  0.30849886177E+02  0.16448251018E+03  0.00000000000E+00 0. -1.
         11    1    1    2    0    0 -0.15552849387E+01  0.10212234069E+02 -0.62970654529E+01  0.12098002696E+02  0.00000000000E+00 0.  1.
        -15    1    3    3    0    0 -0.22318649293E+02 -0.43118621129E+02  0.16219250515E+02  0.51220693188E+02  0.17770000000E+01 0. -1.
         15    1    3    3    0    0 -0.12994198871E+03 -0.16524802761E+02 -0.40772071239E+02  0.13719879394E+03  0.17770000000E+01 0.  1.
</event>
<event>
 7    1  0.2537562E-007  0.2167874E+03  0.7546771E-02  0.1044028E+00
        -11   -1    0    0    0    0  0.00000000000E+00  0.00000000000E+00  0.18250000000E+03  0.18250000000E+03  0.00000000000E+00 0. -1.
         11   -1    0    0    0    0 -0.00000000000E+00 -0.00000000000E+00 -0.18250000000E+03  0.18250000000E+03  0.00000000000E+00 0.  1.
         23    2    1    2    0    0 -0.81827810010E+01 -0.44248693237E+02  0.11364184563E+02  0.10608240736E+03  0.95390920435E+02 0.  0.
        -11    1    1    2    0    0  0.49187793870E+02 -0.79141331072E+02  0.59772865217E+02  0.11070494463E+03  0.00000000000E+00 0. -1.
         11    1    1    2    0    0 -0.41005012869E+02  0.12339002431E+03 -0.71137049781E+02  0.14821264801E+03  0.00000000000E+00 0.  1.
        -15    1    3    3    0    0 -0.41138953558E+02 -0.49589399634E+02  0.26106536823E+02  0.69543015823E+02  0.17770000000E+01 0. -1.
         15    1    3    3    0    0  0.32956172557E+02  0.53407063963E+01 -0.14742352259E+02  0.36539391532E+02  0.17770000000E+01 0.  1.
</event>
<event>
 7    1  0.2537562E-007  0.2134438E+03  0.7546771E-02  0.1046186E+00
        -11   -1    0    0    0    0  0.00000000000E+00  0.00000000000E+00  0.18250000000E+03  0.18250000000E+03  0.00000000000E+00 0.  1.
         11   -1    0    0    0    0 -0.00000000000E+00 -0.00000000000E+00 -0.18250000000E+03  0.18250000000E+03  0.00000000000E+00 0. -1.
         23    2    1    2    0    0 -0.23229919559E+02  0.24596332477E+01  0.69324680293E+02  0.11813047897E+03  0.92753543361E+02 0.  0.
        -11    1    1    2    0    0  0.21263088832E+02  0.65027373076E+02  0.66362205691E+02  0.95313275781E+02  0.00000000000E+00 0.  1.
         11    1    1    2    0    0  0.19668307265E+01 -0.67487006324E+02 -0.13568688598E+03  0.15155624525E+03  0.00000000000E+00 0. -1.
        -15    1    3    3    0    0  0.16004687160E+02  0.65480480176E+01 -0.16305809407E+02  0.23834095186E+02  0.17770000000E+01 0.  1.
         15    1    3    3    0    0 -0.39234606719E+02 -0.40884147699E+01  0.85630489700E+02  0.94296383785E+02  0.17770000000E+01 0. -1.
</event>
<event>
 7    1  0.2537562E-007  0.1673210E+03  0.7546771E-02  0.1081223E+00
        -11   -1    0    0    0    0  0.00000000000E+00  0.00000000000E+00  0.18250000000E+03  0.18250000000E+03  0.00000000000E+00 0.  1.
         11   -1    0    0    0    0 -0.00000000000E+00 -0.00000000000E+00 -0.18250000000E+03  0.18250000000E+03  0.00000000000E+00 0. -1.
         23    2    1    2    0    0  0.31738602869E+02  0.44799315950E+02  0.14936789855E+03  0.18390727797E+03  0.92178089325E+02 0.  0.
        -11    1    1    2    0    0 -0.31401761271E+02  0.19034638652E+02 -0.38803873143E+02  0.53424045620E+02  0.00000000000E+00 0.  1.
         11    1    1    2    0    0 -0.33684159799E+00 -0.63833954602E+02 -0.11056402541E+03  0.12766867641E+03  0.00000000000E+00 0. -1.
        -15    1    3    3    0    0  0.55398412560E+02  0.43412954161E+02  0.14285842020E+03  0.15926504530E+03  0.17770000000E+01 0.  1.
         15    1    3    3    0    0 -0.23659809690E+02  0.13863617898E+01  0.65094783478E+01  0.24642232670E+02  0.17770000000E+01 0. -1.
</event>
<event>
 7    1  0.2537562E-007  0.1451238E+03  0.7546771E-02  0.1102839E+00
        -11   -1    0    0    0    0  0.00000000000E+00  0.00000000000E+00  0.18250000000E+03  0.18250000000E+03  0.00000000000E+00 0.  1.
         11   -1    0    0    0    0 -0.00000000000E+00 -0.00000000000E+00 -0.18250000000E+03  0.18250000000E+03  0.00000000000E+00 0. -1.
         23    2    1    2    0    0 -0.12092841094E+01 -0.16335414734E+02 -0.10059623439E+03  0.14280043072E+03  0.10002026045E+03 0.  0.
        -11    1    1    2    0    0 -0.41008343478E+02  0.97062267883E+02  0.68181182670E+02  0.12550474792E+03  0.00000000000E+00 0.  1.
         11    1    1    2    0    0  0.42217627588E+02 -0.80726853148E+02  0.32415051715E+02  0.96694821351E+02  0.00000000000E+00 0. -1.
        -15    1    3    3    0    0 -0.15981056954E+02 -0.29442167640E+02  0.62550192186E+01  0.34125040822E+02  0.17770000000E+01 0.  1.
         15    1    3    3    0    0  0.14771772845E+02  0.13106752906E+02 -0.10685125360E+03  0.10867538990E+03  0.17770000000E+01 0. -1.
</event>
<event>
 7    1  0.2537562E-007  0.1921657E+03  0.7546771E-02  0.1061011E+00
        -11   -1    0    0    0    0  0.00000000000E+00  0.00000000000E+00  0.18250000000E+03  0.18250000000E+03  0.00000000000E+00 0.  1.
         11   -1    0    0    0    0 -0.00000000000E+00 -0.00000000000E+00 -0.18250000000E+03  0.18250000000E+03  0.00000000000E+00 0.  1.
         23    2    1    2    0    0 -0.94682248478E+01 -0.15751321076E+02  0.16719783666E+03  0.19216567419E+03  0.92923508093E+02 0.  0.
        -11    1    1    2    0    0  0.10928476587E+02 -0.70239151426E+01 -0.19807932503E+02  0.23687996422E+02  0.00000000000E+00 0.  1.
         11    1    1    2    0    0 -0.14602517395E+01  0.22775236219E+02 -0.14738990416E+03  0.14914632938E+03  0.00000000000E+00 0.  1.
        -15    1    3    3    0    0 -0.47080169620E+02 -0.28387914232E+02  0.97390623463E+02  0.11185037914E+03  0.17770000000E+01 0. -1.
         15    1    3    3    0    0  0.37611944772E+02  0.12636593156E+02  0.69807213201E+02  0.80315295057E+02  0.17770000000E+01 0.  1.
</event>
<event>
 7    1  0.2537562E-007  0.2031743E+03  0.7546771E-02  0.1053094E+00
        -11   -1    0    0    0    0  0.00000000000E+00  0.00000000000E+00  0.18250000000E+03  0.18250000000E+03  0.00000000000E+00 0.  1.
         11   -1    0    0    0    0 -0.00000000000E+00 -0.00000000000E+00 -0.18250000000E+03  0.18250000000E+03  0.00000000000E+00 0.  1.
         23    2    1    2    0    0  0.23275114360E+02  0.88568032466E+01  0.60311100859E+02  0.10547735895E+03  0.82872615821E+02 0.  0.
        -11    1    1    2    0    0  0.43215345990E+02 -0.83239688219E+01  0.87222927747E+02  0.97696948318E+02  0.00000000000E+00 0.  1.
         11    1    1    2    0    0 -0.66490460350E+02 -0.53283442472E+00 -0.14753402861E+03  0.16182569273E+03  0.00000000000E+00 0.  1.
        -15    1    3    3    0    0  0.38060123499E+02 -0.27586952698E+02  0.35643045067E+02  0.59018618677E+02  0.17770000000E+01 0. -1.
         15    1    3    3    0    0 -0.14785009139E+02  0.36443755945E+02  0.24668055792E+02  0.46458740277E+02  0.17770000000E+01 0.  1.
</event>
<event>
 7    1  0.2537562E-007  0.1359476E+03  0.7546771E-02  0.1113057E+00
        -11   -1    0    0    0    0  0.00000000000E+00  0.00000000000E+00  0.18250000000E+03  0.18250000000E+03  0.00000000000E+00 0.  1.
         11   -1    0    0    0    0 -0.00000000000E+00 -0.00000000000E+00 -0.18250000000E+03  0.18250000000E+03  0.00000000000E+00 0. -1.
         23    2    1    2    0    0 -0.21759779528E+02  0.28513211963E+02 -0.70887161438E+02  0.11819110142E+03  0.87508031266E+02 0.  0.
        -11    1    1    2    0    0 -0.26868544943E+02  0.35689634376E+02  0.13605791506E+03  0.14320413737E+03  0.00000000000E+00 0.  1.
         11    1    1    2    0    0  0.48628324471E+02 -0.64202846340E+02 -0.65170753620E+02  0.10360476122E+03  0.00000000000E+00 0. -1.
        -15    1    3    3    0    0 -0.37210394595E+02  0.48320216053E+02 -0.25178869638E+02  0.66004469171E+02  0.17770000000E+01 0. -1.
         15    1    3    3    0    0  0.15450615067E+02 -0.19807004090E+02 -0.45708291800E+02  0.52186632246E+02  0.17770000000E+01 0.  1.
</event>
<event>
 7    1  0.2537562E-007  0.1672594E+03  0.7546771E-02  0.1081278E+00
        -11   -1    0    0    0    0  0.00000000000E+00  0.00000000000E+00  0.18250000000E+03  0.18250000000E+03  0.00000000000E+00 0. -1.
         11   -1    0    0    0    0 -0.00000000000E+00 -0.00000000000E+00 -0.18250000000E+03  0.18250000000E+03  0.00000000000E+00 0.  1.
         23    2    1    2    0    0  0.26114612062E+02  0.11136660840E+02  0.11812329665E+03  0.15254484238E+03  0.92254092311E+02 0.  0.
        -11    1    1    2    0    0  0.65659007983E+00 -0.39834037275E+02  0.35828086870E+02  0.53580159060E+02  0.00000000000E+00 0. -1.
         11    1    1    2    0    0 -0.26771202142E+02  0.28697376435E+02 -0.15395138352E+03  0.15887499856E+03  0.00000000000E+00 0.  1.
        -15    1    3    3    0    0  0.52937792985E+02  0.17033865305E+02  0.11092620911E+03  0.12409812283E+03  0.17770000000E+01 0. -1.
         15    1    3    3    0    0 -0.26823180923E+02 -0.58972044657E+01  0.71970875422E+01  0.28446719554E+02  0.17770000000E+01 0.  1.
</event>
<event>
 7    1  0.2537562E-007  0.1345333E+03  0.7546771E-02  0.1114711E+00
        -11   -1    0    0    0    0  0.00000000000E+00  0.00000000000E+00  0.18250000000E+03  0.18250000000E+03  0.00000000000E+00 0.  1.
         11   -1    0    0    0    0 -0.00000000000E+00 -0.00000000000E+00 -0.18250000000E+03  0.18250000000E+03  0.00000000000E+00 0. -1.
         23    2    1    2    0    0  0.25436516162E+02 -0.35103997123E+01  0.70697601140E+01  0.94618461348E+02  0.90792799600E+02 0.  0.
        -11    1    1    2    0    0 -0.20016272090E+02 -0.16084393684E+02  0.12964494805E+03  0.13216342695E+03  0.00000000000E+00 0.  1.
         11    1    1    2    0    0 -0.54202440720E+01  0.19594793397E+02 -0.13671470816E+03  0.13821811170E+03  0.00000000000E+00 0. -1.
        -15    1    3    3    0    0  0.31967434282E+02 -0.24281980756E+02 -0.30982704212E+02  0.50740685187E+02  0.17770000000E+01 0. -1.
         15    1    3    3    0    0 -0.65309181201E+01  0.20771581043E+02  0.38052464326E+02  0.43877776161E+02  0.17770000000E+01 0.  1.
</event>
<event>
 7    1  0.2537562E-007  0.1468717E+03  0.7546771E-02  0.1100987E+00
        -11   -1    0    0    0    0  0.00000000000E+00  0.00000000000E+00  0.18250000000E+03  0.18250000000E+03  0.00000000000E+00 0. -1.
         11   -1    0    0    0    0 -0.00000000000E+00 -0.00000000000E+00 -0.18250000000E+03  0.18250000000E+03  0.00000000000E+00 0.  1.
         23    2    1    2    0    0  0.45438941402E+02  0.22855680903E+02 -0.37181332835E+02  0.11939527879E+03  0.10141844773E+03 0.  0.
        -11    1    1    2    0    0 -0.86468596384E+02 -0.17330421956E+02  0.12240081910E+03  0.15086126807E+03  0.00000000000E+00 0. -1.
         11    1    1    2    0    0  0.41029654981E+02 -0.55252589468E+01 -0.85219486266E+02  0.94743453145E+02  0.00000000000E+00 0.  1.
        -15    1    3    3    0    0  0.70298122836E+02  0.12175415778E+02  0.24117896431E+01  0.71407571601E+02  0.17770000000E+01 0. -1.
         15    1    3    3    0    0 -0.24859181433E+02  0.10680265124E+02 -0.39593122478E+02  0.47987707189E+02  0.17770000000E+01 0.  1.
</event>
<event>
 7    1  0.2537562E-007  0.1630344E+03  0.7546771E-02  0.1085100E+00
        -11   -1    0    0    0    0  0.00000000000E+00  0.00000000000E+00  0.18250000000E+03  0.18250000000E+03  0.00000000000E+00 0. -1.
         11   -1    0    0    0    0 -0.00000000000E+00 -0.00000000000E+00 -0.18250000000E+03  0.18250000000E+03  0.00000000000E+00 0.  1.
         23    2    1    2    0    0 -0.17730966340E+02  0.31150278415E+02 -0.11436369473E+03  0.14984521802E+03  0.89943358169E+02 0.  0.
        -11    1    1    2    0    0  0.74155160471E+02 -0.46259856882E+02  0.12816928460E+03  0.15513325787E+03  0.00000000000E+00 0. -1.
         11    1    1    2    0    0 -0.56424194131E+02  0.15109578467E+02 -0.13805589874E+02  0.60021524111E+02  0.00000000000E+00 0.  1.
        -15    1    3    3    0    0  0.13689590994E+01  0.38450402417E+02 -0.53137552665E+01  0.38880602093E+02  0.17770000000E+01 0.  1.
         15    1    3    3    0    0 -0.19099925439E+02 -0.73001240025E+01 -0.10904993946E+03  0.11096461592E+03  0.17770000000E+01 0. -1.
</event>
<event>
 7    1  0.2537562E-007  0.1644464E+03  0.7546771E-02  0.1083809E+00
        -11   -1    0    0    0    0  0.00000000000E+00  0.00000000000E+00  0.18250000000E+03  0.18250000000E+03  0.00000000000E+00 0. -1.
         11   -1    0    0    0    0 -0.00000000000E+00 -0.00000000000E+00 -0.18250000000E+03  0.18250000000E+03  0.00000000000E+00 0. -1.
         23    2    1    2    0    0 -0.20576315421E+02 -0.93930136775E+01  0.13420083914E+03  0.16838472577E+03  0.99156125304E+02 0.  0.
        -11    1    1    2    0    0  0.58424452461E+02 -0.20921627444E+02 -0.94521155149E+01  0.62773191953E+02  0.00000000000E+00 0. -1.
         11    1    1    2    0    0 -0.37848137040E+02  0.30314641122E+02 -0.12474872362E+03  0.13384208228E+03  0.00000000000E+00 0. -1.
        -15    1    3    3    0    0  0.32156909930E+02 -0.21734595850E+02  0.24233844637E+02  0.45791882118E+02  0.17770000000E+01 0. -1.
         15    1    3    3    0    0 -0.52733225351E+02  0.12341582172E+02  0.10996699450E+03  0.12259284365E+03  0.17770000000E+01 0.  1.
</event>
<event>
 7    1  0.2537562E-007  0.1539869E+03  0.7546771E-02  0.1093730E+00
        -11   -1    0    0    0    0  0.00000000000E+00  0.00000000000E+00  0.18250000000E+03  0.18250000000E+03  0.00000000000E+00 0. -1.
         11   -1    0    0    0    0 -0.00000000000E+00 -0.00000000000E+00 -0.18250000000E+03  0.18250000000E+03  0.00000000000E+00 0.  1.
         23    2    1    2    0    0  0.64530399241E+02 -0.65543243403E+01 -0.77473290212E+02  0.13952603015E+03  0.96219908536E+02 0.  0.
        -11    1    1    2    0    0 -0.62211380155E+02 -0.62875423985E+02  0.11612658876E+03  0.14597588629E+03  0.00000000000E+00 0. -1.
         11    1    1    2    0    0 -0.23190190853E+01  0.69429748325E+02 -0.38653298543E+02  0.79498083563E+02  0.00000000000E+00 0.  1.
        -15    1    3    3    0    0  0.16650238505E+02 -0.32124271394E+02  0.90781095226E+01  0.37346607026E+02  0.17770000000E+01 0. -1.
         15    1    3    3    0    0  0.47880160736E+02  0.25569947053E+02 -0.86551399734E+02  0.10217942312E+03  0.17770000000E+01 0.  1.
</event>
<event>
 7    1  0.2537562E-007  0.1368777E+03  0.7546771E-02  0.1111982E+00
        -11   -1    0    0    0    0  0.00000000000E+00  0.00000000000E+00  0.18250000000E+03  0.18250000000E+03  0.00000000000E+00 0.  1.
         11   -1    0    0    0    0 -0.00000000000E+00 -0.00000000000E+00 -0.18250000000E+03  0.18250000000E+03  0.00000000000E+00 0. -1.
         23    2    1    2    0    0 -0.27772829546E+02 -0.53295816822E+02 -0.31148156958E+02  0.11610035616E+03  0.94325557869E+02 0.  0.
        -11    1    1    2    0    0  0.88425029821E+02  0.17646202422E+02  0.11065129755E+03  0.14273781562E+03  0.00000000000E+00 0.  1.
         11    1    1    2    0    0 -0.60652200274E+02  0.35649614400E+02 -0.79503140596E+02  0.10616182821E+03  0.00000000000E+00 0. -1.
        -15    1    3    3    0    0  0.31112408615E+02 -0.38999683632E+02 -0.53131206639E+01  0.50203030520E+02  0.17770000000E+01 0.  1.
         15    1    3    3    0    0 -0.58885238161E+02 -0.14296133190E+02 -0.25835036295E+02  0.65897325642E+02  0.17770000000E+01 0. -1.
</event>
<event>
 7    1  0.2537562E-007  0.2125563E+03  0.7546771E-02  0.1046766E+00
        -11   -1    0    0    0    0  0.00000000000E+00  0.00000000000E+00  0.18250000000E+03  0.18250000000E+03  0.00000000000E+00 0. -1.
         11   -1    0    0    0    0 -0.00000000000E+00 -0.00000000000E+00 -0.18250000000E+03  0.18250000000E+03  0.00000000000E+00 0.  1.
         23    2    1    2    0    0 -0.12538285997E+02 -0.88588851933E+01  0.62375674495E+02  0.11322079724E+03  0.93233769072E+02 0.  0.
        -11    1    1    2    0    0 -0.72719765459E+02 -0.41270596451E+02  0.53629422490E+02  0.99335499075E+02  0.00000000000E+00 0. -1.
         11    1    1    2    0    0  0.85258051456E+02  0.50129481645E+02 -0.11600509698E+03  0.15244370369E+03  0.00000000000E+00 0.  1.
        -15    1    3    3    0    0  0.71716922842E+01  0.19809979975E+02 -0.16614605172E+02  0.26889985327E+02  0.17770000000E+01 0.  1.
         15    1    3    3    0    0 -0.19709978281E+02 -0.28668865169E+02  0.78990279667E+02  0.86330811908E+02  0.17770000000E+01 0. -1.
</event>
<event>
 7    1  0.2537562E-007  0.1455301E+03  0.7546771E-02  0.1102406E+00
        -11   -1    0    0    0    0  0.00000000000E+00  0.00000000000E+00  0.18250000000E+03  0.18250000000E+03  0.00000000000E+00 0.  1.
         11   -1    0    0    0    0 -0.00000000000E+00 -0.00000000000E+00 -0.18250000000E+03  0.18250000000E+03  0.00000000000E+00 0. -1.
         23    2    1    2    0    0 -0.12255160602E+03 -0.28138040166E+02 -0.20102893267E+02  0.15617713783E+03  0.90424148427E+02 0.  0.
        -11    1    1    2    0    0  0.27454788055E+02  0.17900812166E+01  0.85913555639E+02  0.90211467233E+02  0.00000000000E+00 0.  1.
         11    1    1    2    0    0  0.95096817967E+02  0.26347958949E+02 -0.65810662371E+02  0.11861139494E+03  0.00000000000E+00 0. -1.
        -15    1    3    3    0    0 -0.76355643409E+02  0.28703076934E+02 -0.11801148207E+02  0.82440740741E+02  0.17770000000E+01 0. -1.
         15    1    3    3    0    0 -0.46195962613E+02 -0.56841117100E+02 -0.83017450605E+01  0.73736397084E+02  0.17770000000E+01 0.  1.
</event>
<event>
 7    1  0.2537562E-007  0.1669298E+03  0.7546771E-02  0.1081572E+00
        -11   -1    0    0    0    0  0.00000000000E+00  0.00000000000E+00  0.18250000000E+03  0.18250000000E+03  0.00000000000E+00 0.  1.
         11   -1    0    0    0    0 -0.00000000000E+00 -0.00000000000E+00 -0.18250000000E+03  0.18250000000E+03  0.00000000000E+00 0. -1.
         23    2    1    2    0    0  0.68637446116E+02 -0.25044592863E+02  0.12699429669E+03  0.17069070209E+03  0.87575303298E+02 0.  0.
        -11    1    1    2    0    0  0.26346580399E+02  0.38908302754E+02 -0.21483900707E+02  0.51667749240E+02  0.00000000000E+00 0.  1.
         11    1    1    2    0    0 -0.94984026515E+02 -0.13863709891E+02 -0.10551039599E+03  0.14264154867E+03  0.00000000000E+00 0. -1.
        -15    1    3    3    0    0  0.45826607921E+02  0.29729235192E+02  0.63052405825E+02  0.83442609187E+02  0.17770000000E+01 0. -1.
         15    1    3    3    0    0  0.22810838194E+02 -0.54773828055E+02  0.63941890868E+02  0.87248092906E+02  0.17770000000E+01 0.  1.
</event>
<event>
 7    1  0.2537562E-007  0.1430459E+03  0.7546771E-02  0.1105079E+00
        -11   -1    0    0    0    0  0.00000000000E+00  0.00000000000E+00  0.18250000000E+03  0.18250000000E+03  0.00000000000E+00 0.  1.
         11   -1    0    0    0    0 -0.00000000000E+00 -0.00000000000E+00 -0.18250000000E+03  0.18250000000E+03  0.00000000000E+00 0. -1.
         23    2    1    2    0    0 -0.18979590582E+02 -0.71851218860E+02  0.11240982850E+03  0.16260050752E+03  0.90995236090E+02 0.  0.
        -11    1    1    2    0    0  0.72780265134E+02  0.71668447260E+02 -0.34687752401E+02  0.10787295070E+03  0.00000000000E+00 0.  1.
         11    1    1    2    0    0 -0.53800674553E+02  0.18277160012E+00 -0.77722076102E+02  0.94526541783E+02  0.00000000000E+00 0. -1.
        -15    1    3    3    0    0 -0.22931835487E+02 -0.55688490922E+02  0.12801473073E+02  0.61596367927E+02  0.17770000000E+01 0. -1.
         15    1    3    3    0    0  0.39522449054E+01 -0.16162727939E+02  0.99608355431E+02  0.10100413959E+03  0.17770000000E+01 0.  1.
</event>
<event>
 7    1  0.2537562E-007  0.1451241E+03  0.7546771E-02  0.1102839E+00
        -11   -1    0    0    0    0  0.00000000000E+00  0.00000000000E+00  0.18250000000E+03  0.18250000000E+03  0.00000000000E+00 0. -1.
         11   -1    0    0    0    0 -0.00000000000E+00 -0.00000000000E+00 -0.18250000000E+03  0.18250000000E+03  0.00000000000E+00 0.  1.
         23    2    1    2    0    0  0.53731547076E+02 -0.19239696026E+02  0.67723485496E+02  0.12713773212E+03  0.91215609338E+02 0.  0.
        -11    1    1    2    0    0 -0.45410763028E+02 -0.51018672436E+02  0.60611877640E+02  0.91317260400E+02  0.00000000000E+00 0. -1.
         11    1    1    2    0    0 -0.83207840471E+01  0.70258368461E+02 -0.12833536314E+03  0.14654500748E+03  0.00000000000E+00 0.  1.
        -15    1    3    3    0    0  0.50496669219E+02 -0.28147584096E+02  0.87642622276E+02  0.10500755716E+03  0.17770000000E+01 0. -1.
         15    1    3    3    0    0  0.32348778565E+01  0.89078880697E+01 -0.19919136781E+02  0.22130174959E+02  0.17770000000E+01 0.  1.
</event>
<event>
 7    1  0.2537562E-007  0.1495867E+03  0.7546771E-02  0.1098165E+00
        -11   -1    0    0    0    0  0.00000000000E+00  0.00000000000E+00  0.18250000000E+03  0.18250000000E+03  0.00000000000E+00 0.  1.
         11   -1    0    0    0    0 -0.00000000000E+00 -0.00000000000E+00 -0.18250000000E+03  0.18250000000E+03  0.00000000000E+00 0.  1.
         23    2    1    2    0    0 -0.22208951662E+02 -0.19403968139E+02  0.13271806996E+03  0.15556184656E+03  0.75601921257E+02 0.  0.
        -11    1    1    2    0    0  0.72928954926E+02 -0.16164054059E+02 -0.14673964021E+02  0.76126436474E+02  0.00000000000E+00 0.  1.
         11    1    1    2    0    0 -0.50720003264E+02  0.35568022198E+02 -0.11804410594E+03  0.13331171697E+03  0.00000000000E+00 0.  1.
        -15    1    3    3    0    0 -0.11602539845E+02  0.20680866291E+02  0.96131771634E+01  0.25649328755E+02  0.17770000000E+01 0. -1.
         15    1    3    3    0    0 -0.10606411817E+02 -0.40084834431E+02  0.12310489279E+03  0.12991251780E+03  0.17770000000E+01 0.  1.
</event>
<event>
 7    1  0.2537562E-007  0.1741907E+03  0.7546771E-02  0.1075268E+00
        -11   -1    0    0    0    0  0.00000000000E+00  0.00000000000E+00  0.18250000000E+03  0.18250000000E+03  0.00000000000E+00 0.  1.
         11   -1    0    0    0    0 -0.00000000000E+00 -0.00000000000E+00 -0.18250000000E+03  0.18250000000E+03  0.00000000000E+00 0. -1.
         23    2    1    2    0    0  0.40287584127E+02 -0.42785812809E+02  0.11868841809E+03  0.15959959276E+03  0.89058262998E+02 0.  0.
        -11    1    1    2    0    0  0.12455385466E+02  0.88290283951E+01  0.35660735643E+02  0.38791447976E+02  0.00000000000E+00 0.  1.
         11    1    1    2    0    0 -0.52742969593E+02  0.33956784414E+02 -0.15434915373E+03  0.16660895926E+03  0.00000000000E+00 0. -1.
        -15    1    3    3    0    0  0.13077650322E+02 -0.36484551299E+02  0.12502333325E+03  0.13090507633E+03  0.17770000000E+01 0.  1.
         15    1    3    3    0    0  0.27209933805E+02 -0.63012615105E+01 -0.63349151634E+01  0.28694516434E+02  0.17770000000E+01 0. -1.
</event>
<event>
 7    1  0.2537562E-007  0.1731613E+03  0.7546771E-02  0.1076141E+00
        -11   -1    0    0    0    0  0.00000000000E+00  0.00000000000E+00  0.18250000000E+03  0.18250000000E+03  0.00000000000E+00 0.  1.
         11   -1    0    0    0    0 -0.00000000000E+00 -0.00000000000E+00 -0.18250000000E+03  0.18250000000E+03  0.00000000000E+00 0.  1.
         23    2    1    2    0    0  0.48500634849E+02  0.93510514746E+01  0.12913405739E+03  0.16546115402E+03  0.90895736783E+02 0.  0.
        -11    1    1    2    0    0  0.41653056732E+02  0.27669720038E+01 -0.19896507340E+00  0.41745333348E+02  0.00000000000E+00 0.  1.
         11    1    1    2    0    0 -0.90153691581E+02 -0.12118023478E+02 -0.12893509232E+03  0.15779351264E+03  0.00000000000E+00 0.  1.
        -15    1    3    3    0    0  0.63147854397E+02  0.12490494516E+02  0.13476457603E+03  0.14935967544E+03  0.17770000000E+01 0.  1.
         15    1    3    3    0    0 -0.14647219548E+02 -0.31394430409E+01 -0.56305186346E+01  0.16101478572E+02  0.17770000000E+01 0. -1.
</event>
<event>
 7    1  0.3417947E-007  0.1599982E+03  0.7546771E-02  0.1087926E+00
        -11   -1    0    0    0    0  0.00000000000E+00  0.00000000000E+00  0.18250000000E+03  0.18250000000E+03  0.00000000000E+00 0.  1.
         11   -1    0    0    0    0 -0.00000000000E+00 -0.00000000000E+00 -0.18250000000E+03  0.18250000000E+03  0.00000000000E+00 0. -1.
         23    2    1    2    0    0  0.26001858010E+01  0.98536716477E+02  0.74477877752E+02  0.15669547980E+03  0.96386065674E+02 0.  0.
        -11    1    1    2    0    0  0.35982572216E+02 -0.38267181479E+02  0.44912211031E+02  0.69110269724E+02  0.00000000000E+00 0.  1.
         11    1    1    2    0    0 -0.38582758017E+02 -0.60269534998E+02 -0.11939008878E+03  0.13919425047E+03  0.00000000000E+00 0. -1.
        -15    1    3    3    0    0 -0.34610313890E+02  0.55917022892E+02  0.75422932238E+02  0.10008178512E+03  0.17770000000E+01 0.  1.
         15    1    3    3    0    0  0.37210499692E+02  0.42619693585E+02 -0.94505448589E+00  0.56613694682E+02  0.17770000000E+01 0. -1.
</event>
<event>
 7    1  0.2537562E-007  0.1887439E+03  0.7546771E-02  0.1063590E+00
        -11   -1    0    0    0    0  0.00000000000E+00  0.00000000000E+00  0.18250000000E+03  0.18250000000E+03  0.00000000000E+00 0. -1.
         11   -1    0    0    0    0 -0.00000000000E+00 -0.00000000000E+00 -0.18250000000E+03  0.18250000000E+03  0.00000000000E+00 0. -1.
         23    2    1    2    0    0 -0.55916773743E+01  0.50541239305E+02  0.15737835475E+03  0.18874392784E+03  0.90943059257E+02 0.  0.
        -11    1    1    2    0    0 -0.11775077431E+02  0.74420921167E+01 -0.60027008965E+02  0.61622065763E+02  0.00000000000E+00 0. -1.
         11    1    1    2    0    0  0.17366754805E+02 -0.57983331422E+02 -0.97351345787E+02  0.11463400639E+03  0.00000000000E+00 0. -1.
        -15    1    3    3    0    0 -0.10518440468E+02  0.67185731809E+02  0.15720662455E+03  0.17129401823E+03  0.17770000000E+01 0. -1.
         15    1    3    3    0    0  0.49267630936E+01 -0.16644492503E+02  0.17173019760E+00  0.17449909614E+02  0.17770000000E+01 0.  1.
</event>
<event>
 7    1  0.2537562E-007  0.1575397E+03  0.7546771E-02  0.1090265E+00
        -11   -1    0    0    0    0  0.00000000000E+00  0.00000000000E+00  0.18250000000E+03  0.18250000000E+03  0.00000000000E+00 0.  1.
         11   -1    0    0    0    0 -0.00000000000E+00 -0.00000000000E+00 -0.18250000000E+03  0.18250000000E+03  0.00000000000E+00 0.  1.
         23    2    1    2    0    0 -0.13102418087E+02  0.59329139883E+01 -0.99879621559E+02  0.13868666391E+03  0.95137685051E+02 0.  0.
        -11    1    1    2    0    0 -0.80403340001E+01 -0.62789223796E+02  0.13995872218E+03  0.15360852031E+03  0.00000000000E+00 0.  1.
         11    1    1    2    0    0  0.21142752087E+02  0.56856309807E+02 -0.40079100623E+02  0.72704815779E+02  0.00000000000E+00 0.  1.
        -15    1    3    3    0    0  0.33622628335E+02 -0.12030226805E+02 -0.74272128569E+02  0.82430057045E+02  0.17770000000E+01 0. -1.
         15    1    3    3    0    0 -0.46725046422E+02  0.17963140793E+02 -0.25607492990E+02  0.56256606870E+02  0.17770000000E+01 0.  1.
</event>
<event>
 7    1  0.2537562E-007  0.2167170E+03  0.7546771E-02  0.1044073E+00
        -11   -1    0    0    0    0  0.00000000000E+00  0.00000000000E+00  0.18250000000E+03  0.18250000000E+03  0.00000000000E+00 0.  1.
         11   -1    0    0    0    0 -0.00000000000E+00 -0.00000000000E+00 -0.18250000000E+03  0.18250000000E+03  0.00000000000E+00 0. -1.
         23    2    1    2    0    0 -0.37673105119E+02  0.55023529553E+00 -0.14380655005E+02  0.10566069286E+03  0.97661728274E+02 0.  0.
        -11    1    1    2    0    0  0.14447055797E+03 -0.30955782538E+02  0.12564226501E+02  0.14828304819E+03  0.00000000000E+00 0.  1.
         11    1    1    2    0    0 -0.10679745285E+03  0.30405547243E+02  0.18164285040E+01  0.11105625895E+03  0.00000000000E+00 0. -1.
        -15    1    3    3    0    0 -0.41994931080E+02 -0.37185477251E+02 -0.31056860183E+02  0.64140628686E+02  0.17770000000E+01 0.  1.
         15    1    3    3    0    0  0.43218259605E+01  0.37735712547E+02  0.16676205178E+02  0.41520064176E+02  0.17770000000E+01 0. -1.
</event>
<event>
 7    1  0.2537562E-007  0.1501968E+03  0.7546771E-02  0.1097540E+00
        -11   -1    0    0    0    0  0.00000000000E+00  0.00000000000E+00  0.18250000000E+03  0.18250000000E+03  0.00000000000E+00 0.  1.
         11   -1    0    0    0    0 -0.00000000000E+00 -0.00000000000E+00 -0.18250000000E+03  0.18250000000E+03  0.00000000000E+00 0. -1.
         23    2    1    2    0    0 -0.20865017791E+02 -0.13403148468E+03  0.22745712160E+02  0.16504703534E+03  0.91232497505E+02 0.  0.
        -11    1    1    2    0    0  0.36826730607E+02  0.49005216733E+02  0.55956270397E+02  0.82998937047E+02  0.00000000000E+00 0.  1.
         11    1    1    2    0    0 -0.15961712817E+02  0.85026267943E+02 -0.78701982557E+02  0.11695402761E+03  0.00000000000E+00 0. -1.
        -15    1    3    3    0    0  0.11224250679E+02  0.42402565794E+01 -0.13887744506E+02  0.18438838240E+02  0.17770000000E+01 0.  1.
         15    1    3    3    0    0 -0.32089268470E+02 -0.13827174126E+03  0.36633456666E+02  0.14660819710E+03  0.17770000000E+01 0. -1.
</event>
<event>
 7    1  0.2537562E-007  0.1887227E+03  0.7546771E-02  0.1063607E+00
        -11   -1    0    0    0    0  0.00000000000E+00  0.00000000000E+00  0.18250000000E+03  0.18250000000E+03  0.00000000000E+00 0. -1.
         11   -1    0    0    0    0 -0.00000000000E+00 -0.00000000000E+00 -0.18250000000E+03  0.18250000000E+03  0.00000000000E+00 0. -1.
         23    2    1    2    0    0 -0.11514426046E+02  0.25060031635E+02  0.15637732283E+03  0.18525497073E+03  0.95419861105E+02 0.  0.
        -11    1    1    2    0    0  0.81710341789E+01  0.77877353878E+01  0.68554246435E+01  0.13206493443E+02  0.00000000000E+00 0. -1.
         11    1    1    2    0    0  0.33433918669E+01 -0.32847767023E+02 -0.16323274747E+03  0.16653853582E+03  0.00000000000E+00 0. -1.
        -15    1    3    3    0    0 -0.41442744623E+02  0.14315578185E+02  0.25917167403E+02  0.50963655244E+02  0.17770000000E+01 0.  1.
         15    1    3    3    0    0  0.29928318577E+02  0.10744453450E+02  0.13046015543E+03  0.13429131549E+03  0.17770000000E+01 0. -1.
</event>
<event>
 7    1  0.2537562E-007  0.1617038E+03  0.7546771E-02  0.1086330E+00
        -11   -1    0    0    0    0  0.00000000000E+00  0.00000000000E+00  0.18250000000E+03  0.18250000000E+03  0.00000000000E+00 0. -1.
         11   -1    0    0    0    0 -0.00000000000E+00 -0.00000000000E+00 -0.18250000000E+03  0.18250000000E+03  0.00000000000E+00 0.  1.
         23    2    1    2    0    0 -0.10167100325E+03  0.71041519019E+02  0.68694138181E+02  0.16771173874E+03  0.89579307683E+02 0.  0.
        -11    1    1    2    0    0  0.25574467995E+02 -0.41295897904E+02  0.38870467759E+02  0.62211878776E+02  0.00000000000E+00 0. -1.
         11    1    1    2    0    0  0.76096535255E+02 -0.29745621115E+02 -0.10756460594E+03  0.13507638248E+03  0.00000000000E+00 0.  1.
        -15    1    3    3    0    0 -0.90612787003E+02  0.44156765286E+02  0.89064495229E+01  0.10120760674E+03  0.17770000000E+01 0. -1.
         15    1    3    3    0    0 -0.11058216247E+02  0.26884753733E+02  0.59787688658E+02  0.66504132007E+02  0.17770000000E+01 0.  1.
</event>
<event>
 7    1  0.2537562E-007  0.1334116E+03  0.7546771E-02  0.1116039E+00
        -11   -1    0    0    0    0  0.00000000000E+00  0.00000000000E+00  0.18250000000E+03  0.18250000000E+03  0.00000000000E+00 0.  1.
         11   -1    0    0    0    0 -0.00000000000E+00 -0.00000000000E+00 -0.18250000000E+03  0.18250000000E+03  0.00000000000E+00 0.  1.
         23    2    1    2    0    0  0.42439138154E+02  0.54859171185E+02  0.71637260632E+01  0.89216389970E+02  0.55656411651E+02 0.  0.
        -11    1    1    2    0    0 -0.16658642355E+02 -0.63624376683E+02  0.12478406486E+03  0.14105543065E+03  0.00000000000E+00 0.  1.
         11    1    1    2    0    0 -0.25780495799E+02  0.87652054980E+01 -0.13194779092E+03  0.13472817938E+03  0.00000000000E+00 0.  1.
        -15    1    3    3    0    0  0.22167695865E+02  0.55413511207E+02  0.22417184586E+02  0.63778929577E+02  0.17770000000E+01 0.  1.
         15    1    3    3    0    0  0.20271442290E+02 -0.55434002203E+00 -0.15253458522E+02  0.25437460393E+02  0.17770000000E+01 0. -1.
</event>
<event>
 7    1  0.2537562E-007  0.1665845E+03  0.7546771E-02  0.1081880E+00
        -11   -1    0    0    0    0  0.00000000000E+00  0.00000000000E+00  0.18250000000E+03  0.18250000000E+03  0.00000000000E+00 0. -1.
         11   -1    0    0    0    0 -0.00000000000E+00 -0.00000000000E+00 -0.18250000000E+03  0.18250000000E+03  0.00000000000E+00 0. -1.
         23    2    1    2    0    0  0.11671011023E+03  0.58660958343E+02 -0.35526479021E+02  0.15534323813E+03  0.76203891367E+02 0.  0.
        -11    1    1    2    0    0 -0.14794920837E+03 -0.33208691899E+02  0.59366064693E+02  0.16283769561E+03  0.00000000000E+00 0. -1.
         11    1    1    2    0    0  0.31239098145E+02 -0.25452266443E+02 -0.23839585672E+02  0.46819066255E+02  0.00000000000E+00 0. -1.
        -15    1    3    3    0    0  0.10311097240E+03  0.18975487821E+02 -0.41812980190E+02  0.11288677872E+03  0.17770000000E+01 0. -1.
         15    1    3    3    0    0  0.13599137821E+02  0.39685470521E+02  0.62865011687E+01  0.42456459413E+02  0.17770000000E+01 0.  1.
</event>
<event>
 7    1  0.2537562E-007  0.1427346E+03  0.7546771E-02  0.1105418E+00
        -11   -1    0    0    0    0  0.00000000000E+00  0.00000000000E+00  0.18250000000E+03  0.18250000000E+03  0.00000000000E+00 0.  1.
         11   -1    0    0    0    0 -0.00000000000E+00 -0.00000000000E+00 -0.18250000000E+03  0.18250000000E+03  0.00000000000E+00 0.  1.
         23    2    1    2    0    0 -0.65154852346E+01  0.87114034399E+02  0.48787468566E+02  0.13570788250E+03  0.91679363797E+02 0.  0.
        -11    1    1    2    0    0 -0.31245791650E+02 -0.12683387882E+03  0.29319346901E+02  0.13387589930E+03  0.00000000000E+00 0.  1.
         11    1    1    2    0    0  0.37761276884E+02  0.39719844418E+02 -0.78106815467E+02  0.95416218197E+02  0.00000000000E+00 0.  1.
        -15    1    3    3    0    0 -0.20928051388E+02  0.95423588367E+02  0.60827783016E+02  0.11509483684E+03  0.17770000000E+01 0.  1.
         15    1    3    3    0    0  0.14412566154E+02 -0.83095539678E+01 -0.12040314450E+02  0.20613045659E+02  0.17770000000E+01 0. -1.
</event>
<event>
 7    1  0.2537562E-007  0.1846056E+03  0.7546771E-02  0.1066791E+00
        -11   -1    0    0    0    0  0.00000000000E+00  0.00000000000E+00  0.18250000000E+03  0.18250000000E+03  0.00000000000E+00 0.  1.
         11   -1    0    0    0    0 -0.00000000000E+00 -0.00000000000E+00 -0.18250000000E+03  0.18250000000E+03  0.00000000000E+00 0. -1.
         23    2    1    2    0    0  0.11761904134E+03  0.19658813692E+02  0.10419498473E+03  0.18332988962E+03  0.92371780028E+02 0.  0.
        -11    1    1    2    0    0 -0.10672464331E+03 -0.29340007754E+02 -0.11786474107E+03  0.16168822694E+03  0.00000000000E+00 0. -1.
         11    1    1    2    0    0 -0.10894398032E+02  0.96811940624E+01  0.13669756343E+02  0.19981883431E+02  0.00000000000E+00 0.  1.
        -15    1    3    3    0    0  0.28868622080E+02  0.45160861407E+02  0.16857838905E+02  0.56216058252E+02  0.17770000000E+01 0.  1.
         15    1    3    3    0    0  0.88750419260E+02 -0.25502047715E+02  0.87337145825E+02  0.12711383137E+03  0.17770000000E+01 0. -1.
</event>
<event>
 7    1  0.2537562E-007  0.1898967E+03  0.7546771E-02  0.1062715E+00
        -11   -1    0    0    0    0  0.00000000000E+00  0.00000000000E+00  0.18250000000E+03  0.18250000000E+03  0.00000000000E+00 0.  1.
         11   -1    0    0    0    0 -0.00000000000E+00 -0.00000000000E+00 -0.18250000000E+03  0.18250000000E+03  0.00000000000E+00 0.  1.
         23    2    1    2    0    0 -0.13495971793E+02  0.31631966166E+01  0.16587882627E+03  0.18989674221E+03  0.91393876313E+02 0.  0.
        -11    1    1    2    0    0  0.25564300304E+00  0.24979205608E+02 -0.73233766608E+02  0.77377067906E+02  0.00000000000E+00 0.  1.
         11    1    1    2    0    0  0.13240328790E+02 -0.28142402225E+02 -0.92645059666E+02  0.97726189887E+02  0.00000000000E+00 0.  1.
        -15    1    3    3    0    0 -0.40132876553E+02 -0.34431507691E+01  0.15527086786E+03  0.16042039522E+03  0.17770000000E+01 0.  1.
         15    1    3    3    0    0  0.26636904761E+02  0.66063473857E+01  0.10607958414E+02  0.29476346987E+02  0.17770000000E+01 0. -1.
</event>
<event>
 7    1  0.2537562E-007  0.1429891E+03  0.7546771E-02  0.1105140E+00
        -11   -1    0    0    0    0  0.00000000000E+00  0.00000000000E+00  0.18250000000E+03  0.18250000000E+03  0.00000000000E+00 0. -1.
         11   -1    0    0    0    0 -0.00000000000E+00 -0.00000000000E+00 -0.18250000000E+03  0.18250000000E+03  0.00000000000E+00 0.  1.
         23    2    1    2    0    0 -0.21305533998E+02 -0.50539554892E+02 -0.59638822986E+02  0.14026352412E+03  0.11449408109E+03 0.  0.
        -11    1    1    2    0    0 -0.65788712420E+02 -0.97646471148E+01  0.92404301871E+02  0.11385103434E+03  0.00000000000E+00 0. -1.
         11    1    1    2    0    0  0.87094246418E+02  0.60304202007E+02 -0.32765478885E+02  0.11088544154E+03  0.00000000000E+00 0.  1.
        -15    1    3    3    0    0 -0.23194251154E+02 -0.56567952529E+02  0.16890334927E+02  0.63453508043E+02  0.17770000000E+01 0. -1.
         15    1    3    3    0    0  0.18887171566E+01  0.60283976371E+01 -0.76529157913E+02  0.76810016081E+02  0.17770000000E+01 0.  1.
</event>
<event>
 7    1  0.2537562E-007  0.1599217E+03  0.7546771E-02  0.1087998E+00
        -11   -1    0    0    0    0  0.00000000000E+00  0.00000000000E+00  0.18250000000E+03  0.18250000000E+03  0.00000000000E+00 0. -1.
         11   -1    0    0    0    0 -0.00000000000E+00 -0.00000000000E+00 -0.18250000000E+03  0.18250000000E+03  0.00000000000E+00 0. -1.
         23    2    1    2    0    0 -0.51103784794E+02  0.42585185637E+02  0.14130347898E+03  0.17990954606E+03  0.89306644412E+02 0.  0.
        -11    1    1    2    0    0  0.58232192290E+02  0.10607774249E+02 -0.10422305923E+03  0.11985807928E+03  0.00000000000E+00 0. -1.
         11    1    1    2    0    0 -0.71284074960E+01 -0.53192959886E+02 -0.37080419752E+02  0.65232374661E+02  0.00000000000E+00 0. -1.
        -15    1    3    3    0    0  0.20418238869E+02  0.77084800842E+01  0.56241103128E+01  0.22607819212E+02  0.17770000000E+01 0.  1.
         15    1    3    3    0    0 -0.71522023662E+02  0.34876705553E+02  0.13567936867E+03  0.15730172685E+03  0.17770000000E+01 0. -1.
</event>
<event>
 7    1  0.2537562E-007  0.1334430E+03  0.7546771E-02  0.1116002E+00
        -11   -1    0    0    0    0  0.00000000000E+00  0.00000000000E+00  0.18250000000E+03  0.18250000000E+03  0.00000000000E+00 0.  1.
         11   -1    0    0    0    0 -0.00000000000E+00 -0.00000000000E+00 -0.18250000000E+03  0.18250000000E+03  0.00000000000E+00 0. -1.
         23    2    1    2    0    0 -0.29545139754E+02 -0.95879179658E+02  0.15953316519E+02  0.13543500544E+03  0.89567851463E+02 0.  0.
        -11    1    1    2    0    0 -0.34485745481E+02  0.91302103012E+02  0.71567356452E+02  0.12102572935E+03  0.00000000000E+00 0.  1.
         11    1    1    2    0    0  0.64030885235E+02  0.45770766452E+01 -0.87520672970E+02  0.10853926521E+03  0.00000000000E+00 0. -1.
        -15    1    3    3    0    0  0.27043706158E+02 -0.19702556484E+02  0.22398973580E+02  0.40304150174E+02  0.17770000000E+01 0.  1.
         15    1    3    3    0    0 -0.56588845912E+02 -0.76176623173E+02 -0.64456570612E+01  0.95130855266E+02  0.17770000000E+01 0. -1.
</event>
<event>
 7    1  0.2537562E-007  0.1376541E+03  0.7546771E-02  0.1111091E+00
        -11   -1    0    0    0    0  0.00000000000E+00  0.00000000000E+00  0.18250000000E+03  0.18250000000E+03  0.00000000000E+00 0. -1.
         11   -1    0    0    0    0 -0.00000000000E+00 -0.00000000000E+00 -0.18250000000E+03  0.18250000000E+03  0.00000000000E+00 0.  1.
         23    2    1    2    0    0 -0.23125717137E+02 -0.83259085966E+02  0.31833541243E+02  0.13024898074E+03  0.92111608646E+02 0.  0.
        -11    1    1    2    0    0  0.94887746136E+02  0.17293506497E+01  0.41623026978E+02  0.10362987694E+03  0.00000000000E+00 0. -1.
         11    1    1    2    0    0 -0.71762028999E+02  0.81529735317E+02 -0.73456568221E+02  0.13112114231E+03  0.00000000000E+00 0.  1.
        -15    1    3    3    0    0  0.15141580028E+02  0.14459086954E+02  0.88708534767E+01  0.22807507792E+02  0.17770000000E+01 0.  1.
         15    1    3    3    0    0 -0.38267297165E+02 -0.97718172921E+02  0.22962687766E+02  0.10744147295E+03  0.17770000000E+01 0. -1.
</event>
<event>
 7    1  0.2537562E-007  0.2181084E+03  0.7546771E-02  0.1043186E+00
        -11   -1    0    0    0    0  0.00000000000E+00  0.00000000000E+00  0.18250000000E+03  0.18250000000E+03  0.00000000000E+00 0.  1.
         11   -1    0    0    0    0 -0.00000000000E+00 -0.00000000000E+00 -0.18250000000E+03  0.18250000000E+03  0.00000000000E+00 0. -1.
         23    2    1    2    0    0 -0.35792598668E+02  0.20350510239E+01 -0.40447456442E+02  0.11216594579E+03  0.98285050289E+02 0.  0.
        -11    1    1    2    0    0  0.50687345424E+02 -0.75358732122E+02  0.11545132220E+03  0.14689163792E+03  0.00000000000E+00 0.  1.
         11    1    1    2    0    0 -0.14894746756E+02  0.73323681098E+02 -0.75003865757E+02  0.10594241629E+03  0.00000000000E+00 0. -1.
        -15    1    3    3    0    0  0.33702437965E+02  0.74048172827E+00 -0.50131089548E+01  0.34127578707E+02  0.17770000000E+01 0.  1.
         15    1    3    3    0    0 -0.69495036633E+02  0.12945692956E+01 -0.35434347487E+02  0.78038367084E+02  0.17770000000E+01 0. -1.
</event>
<event>
 7    1  0.2537562E-007  0.1362982E+03  0.7546771E-02  0.1112651E+00
        -11   -1    0    0    0    0  0.00000000000E+00  0.00000000000E+00  0.18250000000E+03  0.18250000000E+03  0.00000000000E+00 0.  1.
         11   -1    0    0    0    0 -0.00000000000E+00 -0.00000000000E+00 -0.18250000000E+03  0.18250000000E+03  0.00000000000E+00 0.  1.
         23    2    1    2    0    0  0.78004354731E+01  0.76221480383E+01 -0.80153461140E+02  0.12249991056E+03  0.91992971584E+02 0.  0.
        -11    1    1    2    0    0  0.86235444315E+02 -0.54462825451E+02  0.91255754786E+02  0.13685892004E+03  0.00000000000E+00 0.  1.
         11    1    1    2    0    0 -0.94035879788E+02  0.46840677413E+02 -0.11102293646E+02  0.10564116940E+03  0.00000000000E+00 0.  1.
        -15    1    3    3    0    0 -0.32467287531E+02 -0.98303761698E+00 -0.73991061534E+02  0.80826518164E+02  0.17770000000E+01 0.  1.
         15    1    3    3    0    0  0.40267723004E+02  0.86051856553E+01 -0.61623996063E+01  0.41673392399E+02  0.17770000000E+01 0. -1.
</event>
<event>
 7    1  0.2537562E-007  0.1879213E+03  0.7546771E-02  0.1064219E+00
        -11   -1    0    0    0    0  0.00000000000E+00  0.00000000000E+00  0.18250000000E+03  0.18250000000E+03  0.00000000000E+00 0. -1.
         11   -1    0    0    0    0 -0.00000000000E+00 -0.00000000000E+00 -0.18250000000E+03  0.18250000000E+03  0.00000000000E+00 0.  1.
         23    2    1    2    0    0 -0.23344161513E+02 -0.49689093281E+01  0.16269835282E+03  0.18792133886E+03  0.90961726300E+02 0.  0.
        -11    1    1    2    0    0 -0.56671545091E+01 -0.25239529210E+02 -0.42075946988E+02  0.49391657088E+02  0.00000000000E+00 0. -1.
         11    1    1    2    0    0  0.29011316023E+02  0.30208438538E+02 -0.12062240583E+03  0.12768700406E+03  0.00000000000E+00 0.  1.
        -15    1    3    3    0    0  0.28768318092E+02 -0.24921332394E+02  0.61613248708E+02  0.72443350830E+02  0.17770000000E+01 0.  1.
         15    1    3    3    0    0 -0.52112479606E+02  0.19952423066E+02  0.10108510411E+03  0.11547798803E+03  0.17770000000E+01 0. -1.
</event>
<event>
 7    1  0.2537562E-007  0.1302281E+03  0.7546771E-02  0.1119888E+00
        -11   -1    0    0    0    0  0.00000000000E+00  0.00000000000E+00  0.18250000000E+03  0.18250000000E+03  0.00000000000E+00 0.  1.
         11   -1    0    0    0    0 -0.00000000000E+00 -0.00000000000E+00 -0.18250000000E+03  0.18250000000E+03  0.00000000000E+00 0. -1.
         23    2    1    2    0    0  0.34130985424E+02 -0.21663176379E+02  0.88575822863E+01  0.10127647925E+03  0.92435118375E+02 0.  0.
        -11    1    1    2    0    0  0.11377207015E+02  0.51917419842E+02  0.11590917632E+03  0.12751390699E+03  0.00000000000E+00 0.  1.
         11    1    1    2    0    0 -0.45508192439E+02 -0.30254243463E+02 -0.12476675860E+03  0.13620961375E+03  0.00000000000E+00 0. -1.
        -15    1    3    3    0    0  0.20471979961E+02  0.30422365479E+02  0.25717727442E+02  0.44823894506E+02  0.17770000000E+01 0.  1.
         15    1    3    3    0    0  0.13659005463E+02 -0.52085541859E+02 -0.16860145156E+02  0.56452584747E+02  0.17770000000E+01 0. -1.
</event>
<event>
 7    1  0.2537562E-007  0.1668065E+03  0.7546771E-02  0.1081682E+00
        -11   -1    0    0    0    0  0.00000000000E+00  0.00000000000E+00  0.18250000000E+03  0.18250000000E+03  0.00000000000E+00 0.  1.
         11   -1    0    0    0    0 -0.00000000000E+00 -0.00000000000E+00 -0.18250000000E+03  0.18250000000E+03  0.00000000000E+00 0. -1.
         23    2    1    2    0    0 -0.22712928490E+02 -0.12820125014E+03 -0.74150524604E+02  0.17507686818E+03  0.90565842437E+02 0.  0.
        -11    1    1    2    0    0  0.61732415139E+02  0.92024216426E+02  0.79594461391E+02  0.13643542711E+03  0.00000000000E+00 0.  1.
         11    1    1    2    0    0 -0.39019486649E+02  0.36177033711E+02 -0.54439367874E+01  0.53487704702E+02  0.00000000000E+00 0. -1.
        -15    1    3    3    0    0 -0.13440904620E+02  0.89963884964E+00 -0.38476893436E+02  0.40805591829E+02  0.17770000000E+01 0.  1.
         15    1    3    3    0    0 -0.92720238697E+01 -0.12910088899E+03 -0.35673631168E+02  0.13427127635E+03  0.17770000000E+01 0. -1.
</event>
<event>
 7    1  0.2537562E-007  0.1363372E+03  0.7546771E-02  0.1112606E+00
        -11   -1    0    0    0    0  0.00000000000E+00  0.00000000000E+00  0.18250000000E+03  0.18250000000E+03  0.00000000000E+00 0.  1.
         11   -1    0    0    0    0 -0.00000000000E+00 -0.00000000000E+00 -0.18250000000E+03  0.18250000000E+03  0.00000000000E+00 0. -1.
         23    2    1    2    0    0 -0.33479945832E+02 -0.65847426404E+02  0.41905077091E+02  0.12478799174E+03  0.91428754007E+02 0.  0.
        -11    1    1    2    0    0 -0.97912993468E+01  0.60153514704E+02  0.85807144806E+02  0.10524818751E+03  0.00000000000E+00 0.  1.
         11    1    1    2    0    0  0.43271245179E+02  0.56939116999E+01 -0.12771222190E+03  0.13496382075E+03  0.00000000000E+00 0. -1.
        -15    1    3    3    0    0 -0.30148948287E+02  0.16870981047E+02  0.15174913224E+02  0.37775981849E+02  0.17770000000E+01 0.  1.
         15    1    3    3    0    0 -0.33309975456E+01 -0.82718407451E+02  0.26730163867E+02  0.87012009891E+02  0.17770000000E+01 0. -1.
</event>
<event>
 7    1  0.2537562E-007  0.1534006E+03  0.7546771E-02  0.1094311E+00
        -11   -1    0    0    0    0  0.00000000000E+00  0.00000000000E+00  0.18250000000E+03  0.18250000000E+03  0.00000000000E+00 0.  1.
         11   -1    0    0    0    0 -0.00000000000E+00 -0.00000000000E+00 -0.18250000000E+03  0.18250000000E+03  0.00000000000E+00 0.  1.
         23    2    1    2    0    0  0.47989655781E+01 -0.46555382181E+02  0.13497497055E+03  0.16994862414E+03  0.92053563158E+02 0.  0.
        -11    1    1    2    0    0  0.40559108916E+02 -0.30358437628E+02 -0.59392885949E+02  0.78065299286E+02  0.00000000000E+00 0.  1.
         11    1    1    2    0    0 -0.45358074494E+02  0.76913819808E+02 -0.75582084605E+02  0.11698607658E+03  0.00000000000E+00 0.  1.
        -15    1    3    3    0    0 -0.43577357570E+02 -0.22729132467E+02  0.60074179341E+02  0.77638033901E+02  0.17770000000E+01 0.  1.
         15    1    3    3    0    0  0.48376323149E+02 -0.23826249714E+02  0.74900791212E+02  0.92310590237E+02  0.17770000000E+01 0. -1.
</event>
<event>
 7    1  0.2537562E-007  0.1715852E+03  0.7546771E-02  0.1077491E+00
        -11   -1    0    0    0    0  0.00000000000E+00  0.00000000000E+00  0.18250000000E+03  0.18250000000E+03  0.00000000000E+00 0. -1.
         11   -1    0    0    0    0 -0.00000000000E+00 -0.00000000000E+00 -0.18250000000E+03  0.18250000000E+03  0.00000000000E+00 0.  1.
         23    2    1    2    0    0 -0.68637703162E+02  0.58444470940E+02  0.11339425227E+03  0.17197747891E+03  0.92688221062E+02 0.  0.
        -11    1    1    2    0    0  0.24292909298E+02  0.37265209008E+02 -0.10587427787E+02  0.45726741320E+02  0.00000000000E+00 0. -1.
         11    1    1    2    0    0  0.44344793864E+02 -0.95709679948E+02 -0.10280682449E+03  0.14729577977E+03  0.00000000000E+00 0.  1.
        -15    1    3    3    0    0 -0.63392944951E+02  0.26564670086E+02  0.12060416986E+03  0.13882676501E+03  0.17770000000E+01 0. -1.
         15    1    3    3    0    0 -0.52447582111E+01  0.31879800854E+02 -0.72099175889E+01  0.33150713896E+02  0.17770000000E+01 0.  1.
</event>
<event>
 7    1  0.2537562E-007  0.1522176E+03  0.7546771E-02  0.1095493E+00
        -11   -1    0    0    0    0  0.00000000000E+00  0.00000000000E+00  0.18250000000E+03  0.18250000000E+03  0.00000000000E+00 0. -1.
         11   -1    0    0    0    0 -0.00000000000E+00 -0.00000000000E+00 -0.18250000000E+03  0.18250000000E+03  0.00000000000E+00 0. -1.
         23    2    1    2    0    0 -0.10715006909E+02  0.66200750184E+02  0.77124630003E+02  0.14622612336E+03  0.10457781745E+03 0.  0.
        -11    1    1    2    0    0 -0.86484698859E+02 -0.14095509314E+02 -0.66139640339E+01  0.87875087708E+02  0.00000000000E+00 0. -1.
         11    1    1    2    0    0  0.97199705767E+02 -0.52105240870E+02 -0.70510665969E+02  0.13089878893E+03  0.00000000000E+00 0. -1.
        -15    1    3    3    0    0  0.34758444056E+01  0.79456170704E+02  0.92055500426E+02  0.12166650092E+03  0.17770000000E+01 0. -1.
         15    1    3    3    0    0 -0.14190851314E+02 -0.13255420521E+02 -0.14930870423E+02  0.24559622448E+02  0.17770000000E+01 0.  1.
</event>
<event>
 7    1  0.2537562E-007  0.1773162E+03  0.7546771E-02  0.1072658E+00
        -11   -1    0    0    0    0  0.00000000000E+00  0.00000000000E+00  0.18250000000E+03  0.18250000000E+03  0.00000000000E+00 0. -1.
         11   -1    0    0    0    0 -0.00000000000E+00 -0.00000000000E+00 -0.18250000000E+03  0.18250000000E+03  0.00000000000E+00 0.  1.
         23    2    1    2    0    0 -0.12227743429E+02 -0.52524029728E+02  0.14587378539E+03  0.17971965380E+03  0.90064983711E+02 0.  0.
        -11    1    1    2    0    0  0.24293764051E+02 -0.19094275163E+02 -0.12337619225E+02  0.33271536843E+02  0.00000000000E+00 0. -1.
         11    1    1    2    0    0 -0.12066020622E+02  0.71618304890E+02 -0.13353616616E+03  0.15200880936E+03  0.00000000000E+00 0.  1.
        -15    1    3    3    0    0  0.31485901846E+02 -0.51741812328E+02  0.74905382710E+02  0.96345997561E+02  0.17770000000E+01 0.  1.
         15    1    3    3    0    0 -0.43713645275E+02 -0.78221740026E+00  0.70968402676E+02  0.83373656239E+02  0.17770000000E+01 0. -1.
</event>
<event>
 7    1  0.2537562E-007  0.2233717E+03  0.7546771E-02  0.1039898E+00
        -11   -1    0    0    0    0  0.00000000000E+00  0.00000000000E+00  0.18250000000E+03  0.18250000000E+03  0.00000000000E+00 0.  1.
         11   -1    0    0    0    0 -0.00000000000E+00 -0.00000000000E+00 -0.18250000000E+03  0.18250000000E+03  0.00000000000E+00 0. -1.
         23    2    1    2    0    0 -0.49359154655E+01 -0.11061752037E+01 -0.22922203880E+02  0.96202664724E+02  0.93294900098E+02 0.  0.
        -11    1    1    2    0    0 -0.48736672966E+02 -0.73472508611E+02  0.11083822857E+03  0.14162833659E+03  0.00000000000E+00 0.  1.
         11    1    1    2    0    0  0.53672588431E+02  0.74578683815E+02 -0.87916024690E+02  0.12716899868E+03  0.00000000000E+00 0. -1.
        -15    1    3    3    0    0 -0.36423688613E+01 -0.20399842976E+02  0.31878445530E+02  0.38063282343E+02  0.17770000000E+01 0.  1.
         15    1    3    3    0    0 -0.12935466042E+01  0.19293667772E+02 -0.54800649410E+02  0.58139382381E+02  0.17770000000E+01 0. -1.
</event>
<event>
 7    1  0.2537562E-007  0.1554726E+03  0.7546771E-02  0.1092268E+00
        -11   -1    0    0    0    0  0.00000000000E+00  0.00000000000E+00  0.18250000000E+03  0.18250000000E+03  0.00000000000E+00 0. -1.
         11   -1    0    0    0    0 -0.00000000000E+00 -0.00000000000E+00 -0.18250000000E+03  0.18250000000E+03  0.00000000000E+00 0. -1.
         23    2    1    2    0    0 -0.49037212082E+02 -0.57988714227E+02 -0.10537746100E+03  0.15853817668E+03  0.90898872552E+02 0.  0.
        -11    1    1    2    0    0  0.66774712549E+02  0.10319958105E+03  0.49718166023E+02  0.13259303073E+03  0.00000000000E+00 0. -1.
         11    1    1    2    0    0 -0.17737500467E+02 -0.45210866826E+02  0.55659294975E+02  0.73868792592E+02  0.00000000000E+00 0. -1.
        -15    1    3    3    0    0 -0.58983633989E+02 -0.60288478546E+02 -0.41851444223E+02  0.94172558830E+02  0.17770000000E+01 0. -1.
         15    1    3    3    0    0  0.99464219066E+01  0.22997643191E+01 -0.63526016775E+02  0.64365617848E+02  0.17770000000E+01 0.  1.
</event>
<event>
 7    1  0.2537562E-007  0.1363467E+03  0.7546771E-02  0.1112595E+00
        -11   -1    0    0    0    0  0.00000000000E+00  0.00000000000E+00  0.18250000000E+03  0.18250000000E+03  0.00000000000E+00 0. -1.
         11   -1    0    0    0    0 -0.00000000000E+00 -0.00000000000E+00 -0.18250000000E+03  0.18250000000E+03  0.00000000000E+00 0.  1.
         23    2    1    2    0    0  0.52728860270E+01  0.35968626808E+01 -0.15314583407E+02  0.91802380890E+02  0.90290641397E+02 0.  0.
        -11    1    1    2    0    0  0.11610547517E+03  0.62465088138E+02  0.26768624558E+02  0.13453225584E+03  0.00000000000E+00 0. -1.
         11    1    1    2    0    0 -0.12137836120E+03 -0.66061950819E+02 -0.11454041151E+02  0.13866536327E+03  0.00000000000E+00 0.  1.
        -15    1    3    3    0    0 -0.20703488665E+02  0.16419698092E+02  0.28717657748E+02  0.39065362201E+02  0.17770000000E+01 0. -1.
         15    1    3    3    0    0  0.25976374692E+02 -0.12822835412E+02 -0.44032241155E+02  0.52737018689E+02  0.17770000000E+01 0.  1.
</event>
<event>
 7    1  0.2537562E-007  0.1854464E+03  0.7546771E-02  0.1066133E+00
        -11   -1    0    0    0    0  0.00000000000E+00  0.00000000000E+00  0.18250000000E+03  0.18250000000E+03  0.00000000000E+00 0. -1.
         11   -1    0    0    0    0 -0.00000000000E+00 -0.00000000000E+00 -0.18250000000E+03  0.18250000000E+03  0.00000000000E+00 0. -1.
         23    2    1    2    0    0  0.31456558393E+02 -0.76383431197E+00  0.15907871499E+03  0.18815367377E+03  0.95423628534E+02 0.  0.
        -11    1    1    2    0    0  0.12243804161E+02 -0.12927656361E+02 -0.90290281100E+01  0.19963927167E+02  0.00000000000E+00 0. -1.
         11    1    1    2    0    0 -0.43700362554E+02  0.13691490673E+02 -0.15004968688E+03  0.15688239906E+03  0.00000000000E+00 0. -1.
        -15    1    3    3    0    0  0.55558230683E+01  0.24434700780E+02  0.14828545565E+03  0.15039832399E+03  0.17770000000E+01 0. -1.
         15    1    3    3    0    0  0.25900735325E+02 -0.25198535092E+02  0.10793259339E+02  0.37755349784E+02  0.17770000000E+01 0.  1.
</event>
<event>
 7    1  0.2537562E-007  0.2105964E+03  0.7546771E-02  0.1048058E+00
        -11   -1    0    0    0    0  0.00000000000E+00  0.00000000000E+00  0.18250000000E+03  0.18250000000E+03  0.00000000000E+00 0. -1.
         11   -1    0    0    0    0 -0.00000000000E+00 -0.00000000000E+00 -0.18250000000E+03  0.18250000000E+03  0.00000000000E+00 0.  1.
         23    2    1    2    0    0 -0.52268835387E+01  0.69706832346E+01 -0.54677534767E+02  0.10684117555E+03  0.91375561553E+02 0.  0.
        -11    1    1    2    0    0  0.61463311940E+02 -0.34903509502E+02  0.13727517693E+03  0.15440358769E+03  0.00000000000E+00 0. -1.
         11    1    1    2    0    0 -0.56236428401E+02  0.27932826268E+02 -0.82597642167E+02  0.10375523676E+03  0.00000000000E+00 0.  1.
        -15    1    3    3    0    0 -0.34962125447E+02 -0.18111731962E+02  0.36418961608E+00  0.39416689530E+02  0.17770000000E+01 0.  1.
         15    1    3    3    0    0  0.29735241908E+02  0.25082415197E+02 -0.55041724383E+02  0.67424486023E+02  0.17770000000E+01 0. -1.
</event>
<event>
 7    1  0.2537562E-007  0.1611901E+03  0.7546771E-02  0.1086809E+00
        -11   -1    0    0    0    0  0.00000000000E+00  0.00000000000E+00  0.18250000000E+03  0.18250000000E+03  0.00000000000E+00 0.  1.
         11   -1    0    0    0    0 -0.00000000000E+00 -0.00000000000E+00 -0.18250000000E+03  0.18250000000E+03  0.00000000000E+00 0. -1.
         23    2    1    2    0    0  0.28840137165E+02  0.19763334622E+02  0.98016882345E+02  0.13798672519E+03  0.90612825791E+02 0.  0.
        -11    1    1    2    0    0  0.42981969563E+02  0.15587594626E+02  0.44341559050E+02  0.63691417575E+02  0.00000000000E+00 0.  1.
         11    1    1    2    0    0 -0.71822106727E+02 -0.35350929248E+02 -0.14235844139E+03  0.16332185723E+03  0.00000000000E+00 0. -1.
        -15    1    3    3    0    0  0.34109022737E+02  0.52849809559E+02  0.71312106696E+02  0.95105741641E+02  0.17770000000E+01 0.  1.
         15    1    3    3    0    0 -0.52688855729E+01 -0.33086474937E+02  0.26704775649E+02  0.42880983552E+02  0.17770000000E+01 0. -1.
</event>
<event>
 7    1  0.2537562E-007  0.1618831E+03  0.7546771E-02  0.1086164E+00
        -11   -1    0    0    0    0  0.00000000000E+00  0.00000000000E+00  0.18250000000E+03  0.18250000000E+03  0.00000000000E+00 0. -1.
         11   -1    0    0    0    0 -0.00000000000E+00 -0.00000000000E+00 -0.18250000000E+03  0.18250000000E+03  0.00000000000E+00 0.  1.
         23    2    1    2    0    0  0.24505206767E+02 -0.34258824613E+00  0.12493555635E+03  0.15630209675E+03  0.90668791111E+02 0.  0.
        -11    1    1    2    0    0 -0.52833502623E+02 -0.29622600321E+02  0.15342845984E+02  0.62484240990E+02  0.00000000000E+00 0. -1.
         11    1    1    2    0    0  0.28328295856E+02  0.29965188567E+02 -0.14027840233E+03  0.14621366226E+03  0.00000000000E+00 0.  1.
        -15    1    3    3    0    0  0.44354067707E+02 -0.19199357366E+02  0.28713637297E+02  0.56245260611E+02  0.17770000000E+01 0.  1.
         15    1    3    3    0    0 -0.19848860940E+02  0.18856769120E+02  0.96221919051E+02  0.10005683613E+03  0.17770000000E+01 0. -1.
</event>
<event>
 7    1  0.2537562E-007  0.2139305E+03  0.7546771E-02  0.1045869E+00
        -11   -1    0    0    0    0  0.00000000000E+00  0.00000000000E+00  0.18250000000E+03  0.18250000000E+03  0.00000000000E+00 0.  1.
         11   -1    0    0    0    0 -0.00000000000E+00 -0.00000000000E+00 -0.18250000000E+03  0.18250000000E+03  0.00000000000E+00 0. -1.
         23    2    1    2    0    0  0.48085485163E+02  0.34025619667E+02  0.98245529009E+01  0.10935356825E+03  0.91606355528E+02 0.  0.
        -11    1    1    2    0    0  0.31722340603E+02  0.53064045936E+02  0.84345961146E+02  0.10457696221E+03  0.00000000000E+00 0.  1.
         11    1    1    2    0    0 -0.79807825766E+02 -0.87089665604E+02 -0.94170514047E+02  0.15106946953E+03  0.00000000000E+00 0. -1.
        -15    1    3    3    0    0  0.35756931868E+02 -0.24610357144E+02 -0.12786282297E+02  0.45286582995E+02  0.17770000000E+01 0. -1.
         15    1    3    3    0    0  0.12328553295E+02  0.58635976811E+02  0.22610835197E+02  0.64066985260E+02  0.17770000000E+01 0.  1.
</event>
<event>
 7    1  0.2537562E-007  0.1584940E+03  0.7546771E-02  0.1089352E+00
        -11   -1    0    0    0    0  0.00000000000E+00  0.00000000000E+00  0.18250000000E+03  0.18250000000E+03  0.00000000000E+00 0. -1.
         11   -1    0    0    0    0 -0.00000000000E+00 -0.00000000000E+00 -0.18250000000E+03  0.18250000000E+03  0.00000000000E+00 0. -1.
         23    2    1    2    0    0  0.81277343945E+01  0.30348090556E+02  0.14696850656E+03  0.17329349975E+03  0.86277624386E+02 0.  0.
        -11    1    1    2    0    0  0.47251868093E+02 -0.12188394943E+02 -0.11569431614E+03  0.12556460806E+03  0.00000000000E+00 0. -1.
         11    1    1    2    0    0 -0.55379602488E+02 -0.18159695613E+02 -0.31274190420E+02  0.66141892193E+02  0.00000000000E+00 0. -1.
        -15    1    3    3    0    0 -0.30732603297E+02  0.35599456203E+02  0.49922349846E+02  0.68609131539E+02  0.17770000000E+01 0.  1.
         15    1    3    3    0    0  0.38860337691E+02 -0.52513656474E+01  0.97046156712E+02  0.10468436821E+03  0.17770000000E+01 0. -1.
</event>
<event>
 7    1  0.2537562E-007  0.1502507E+03  0.7546771E-02  0.1097485E+00
        -11   -1    0    0    0    0  0.00000000000E+00  0.00000000000E+00  0.18250000000E+03  0.18250000000E+03  0.00000000000E+00 0.  1.
         11   -1    0    0    0    0 -0.00000000000E+00 -0.00000000000E+00 -0.18250000000E+03  0.18250000000E+03  0.00000000000E+00 0. -1.
         23    2    1    2    0    0 -0.28369725671E+02  0.69475411059E+02  0.11073147397E+03  0.16125239155E+03  0.90051098707E+02 0.  0.
        -11    1    1    2    0    0  0.79628501705E+02 -0.11745016423E+02 -0.16912653846E+02  0.82247684190E+02  0.00000000000E+00 0.  1.
         11    1    1    2    0    0 -0.51258776034E+02 -0.57730394636E+02 -0.93818820121E+02  0.12149992426E+03  0.00000000000E+00 0. -1.
        -15    1    3    3    0    0 -0.30903103056E+02  0.17052087412E+02 -0.35147992680E+01  0.35514602722E+02  0.17770000000E+01 0. -1.
         15    1    3    3    0    0  0.25333773853E+01  0.52423323647E+02  0.11424627323E+03  0.12573778883E+03  0.17770000000E+01 0.  1.
</event>
<event>
 7    1  0.2769757E-007  0.1818524E+03  0.7546771E-02  0.1068971E+00
        -11   -1    0    0    0    0  0.00000000000E+00  0.00000000000E+00  0.18250000000E+03  0.18250000000E+03  0.00000000000E+00 0. -1.
         11   -1    0    0    0    0 -0.00000000000E+00 -0.00000000000E+00 -0.18250000000E+03  0.18250000000E+03  0.00000000000E+00 0.  1.
         23    2    1    2    0    0  0.57575111693E+02  0.38031178809E+02  0.14368769440E+03  0.18324661626E+03  0.90398588495E+02 0.  0.
        -11    1    1    2    0    0  0.14895640047E+02  0.13499545913E+02 -0.13960522676E+02  0.24474763036E+02  0.00000000000E+00 0. -1.
         11    1    1    2    0    0 -0.72470751740E+02 -0.51530724723E+02 -0.12972717172E+03  0.15727862070E+03  0.00000000000E+00 0.  1.
        -15    1    3    3    0    0  0.54305109422E+02  0.12518727035E+02  0.14703095568E+03  0.15724828486E+03  0.17770000000E+01 0. -1.
         15    1    3    3    0    0  0.32700022713E+01  0.25512451774E+02 -0.33432612828E+01  0.25998331396E+02  0.17770000000E+01 0.  1.
</event>
<event>
 7    1  0.2537562E-007  0.1306322E+03  0.7546771E-02  0.1119393E+00
        -11   -1    0    0    0    0  0.00000000000E+00  0.00000000000E+00  0.18250000000E+03  0.18250000000E+03  0.00000000000E+00 0. -1.
         11   -1    0    0    0    0 -0.00000000000E+00 -0.00000000000E+00 -0.18250000000E+03  0.18250000000E+03  0.00000000000E+00 0. -1.
         23    2    1    2    0    0 -0.15670771314E+02  0.44584411663E+02 -0.76116279794E+01  0.99386874001E+02  0.87100350207E+02 0.  0.
        -11    1    1    2    0    0 -0.25912748648E+02 -0.39628394056E+02  0.12888803993E+03  0.13730989401E+03  0.00000000000E+00 0. -1.
         11    1    1    2    0    0  0.41583519962E+02 -0.49560176067E+01 -0.12127641195E+03  0.12830323199E+03  0.00000000000E+00 0. -1.
        -15    1    3    3    0    0 -0.14349112465E+01  0.34425008814E+02  0.37508837401E+02  0.50962837580E+02  0.17770000000E+01 0. -1.
         15    1    3    3    0    0 -0.14235860068E+02  0.10159402849E+02 -0.45120465380E+02  0.48424036420E+02  0.17770000000E+01 0.  1.
</event>
<event>
 7    1  0.2537562E-007  0.1573788E+03  0.7546771E-02  0.1090420E+00
        -11   -1    0    0    0    0  0.00000000000E+00  0.00000000000E+00  0.18250000000E+03  0.18250000000E+03  0.00000000000E+00 0. -1.
         11   -1    0    0    0    0 -0.00000000000E+00 -0.00000000000E+00 -0.18250000000E+03  0.18250000000E+03  0.00000000000E+00 0.  1.
         23    2    1    2    0    0 -0.56203495490E+02 -0.24067587801E+02  0.11681323543E+03  0.15802553868E+03  0.87112899251E+02 0.  0.
        -11    1    1    2    0    0  0.10970412778E+02  0.67307957091E+02  0.66895040747E+01  0.68523430366E+02  0.00000000000E+00 0. -1.
         11    1    1    2    0    0  0.45233082713E+02 -0.43240369290E+02 -0.12350273950E+03  0.13845103096E+03  0.00000000000E+00 0.  1.
        -15    1    3    3    0    0 -0.73473188459E+02 -0.38498064076E+02  0.99645297824E+02  0.12966400220E+03  0.17770000000E+01 0. -1.
         15    1    3    3    0    0  0.17269692968E+02  0.14430476275E+02  0.17167937604E+02  0.28361536476E+02  0.17770000000E+01 0.  1.
</event>
<event>
 7    1  0.2537562E-007  0.1511295E+03  0.7546771E-02  0.1096591E+00
        -11   -1    0    0    0    0  0.00000000000E+00  0.00000000000E+00  0.18250000000E+03  0.18250000000E+03  0.00000000000E+00 0.  1.
         11   -1    0    0    0    0 -0.00000000000E+00 -0.00000000000E+00 -0.18250000000E+03  0.18250000000E+03  0.00000000000E+00 0.  1.
         23    2    1    2    0    0  0.38250302374E+02  0.27709250251E+02  0.14242224038E+03  0.17580759089E+03  0.91615098523E+02 0.  0.
        -11    1    1    2    0    0  0.30275195786E+02 -0.74271143188E+01 -0.10292022129E+03  0.10753753511E+03  0.00000000000E+00 0.  1.
         11    1    1    2    0    0 -0.68525498160E+02 -0.20282135933E+02 -0.39502019095E+02  0.81654874004E+02  0.00000000000E+00 0.  1.
        -15    1    3    3    0    0 -0.12847735169E+02 -0.11221336107E+02 -0.24473819578E+01  0.17324263056E+02  0.17770000000E+01 0. -1.
         15    1    3    3    0    0  0.51098037543E+02  0.38930586358E+02  0.14486962234E+03  0.15848332783E+03  0.17770000000E+01 0.  1.
</event>
<event>
 7    1  0.2537562E-007  0.1272635E+03  0.7546771E-02  0.1123582E+00
        -11   -1    0    0    0    0  0.00000000000E+00  0.00000000000E+00  0.18250000000E+03  0.18250000000E+03  0.00000000000E+00 0.  1.
         11   -1    0    0    0    0 -0.00000000000E+00 -0.00000000000E+00 -0.18250000000E+03  0.18250000000E+03  0.00000000000E+00 0. -1.
         23    2    1    2    0    0 -0.33986917818E+02  0.38660714194E+02  0.16483265765E+02  0.10479730281E+03  0.89783156668E+02 0.  0.
        -11    1    1    2    0    0  0.13683750227E+03  0.20525097323E+02  0.96165933848E+01  0.13870205664E+03  0.00000000000E+00 0.  1.
         11    1    1    2    0    0 -0.10285058445E+03 -0.59185811517E+02 -0.26099859150E+02  0.12150064055E+03  0.00000000000E+00 0. -1.
        -15    1    3    3    0    0 -0.15134152471E+02  0.15906975672E+02 -0.37349862665E+02  0.43361785204E+02  0.17770000000E+01 0. -1.
         15    1    3    3    0    0 -0.18852765347E+02  0.22753738522E+02  0.53833128430E+02  0.61435517606E+02  0.17770000000E+01 0.  1.
</event>
<event>
 7    1  0.2537562E-007  0.1262157E+03  0.7546771E-02  0.1124915E+00
        -11   -1    0    0    0    0  0.00000000000E+00  0.00000000000E+00  0.18250000000E+03  0.18250000000E+03  0.00000000000E+00 0.  1.
         11   -1    0    0    0    0 -0.00000000000E+00 -0.00000000000E+00 -0.18250000000E+03  0.18250000000E+03  0.00000000000E+00 0. -1.
         23    2    1    2    0    0 -0.50115626388E+02 -0.18786064163E+02  0.11757720492E+02  0.10668941681E+03  0.91541768903E+02 0.  0.
        -11    1    1    2    0    0  0.86536556556E+02  0.88632050195E+02  0.72044104987E+02  0.14329887999E+03  0.00000000000E+00 0.  1.
         11    1    1    2    0    0 -0.36420930168E+02 -0.69845986032E+02 -0.83801825479E+02  0.11501170320E+03  0.00000000000E+00 0. -1.
        -15    1    3    3    0    0 -0.62778271478E+02  0.11578401915E+02  0.28266468265E+02  0.69837824407E+02  0.17770000000E+01 0.  1.
         15    1    3    3    0    0  0.12662645090E+02 -0.30364466078E+02 -0.16508747774E+02  0.36851592407E+02  0.17770000000E+01 0. -1.
</event>
<event>
 7    1  0.2537562E-007  0.1411762E+03  0.7546771E-02  0.1107130E+00
        -11   -1    0    0    0    0  0.00000000000E+00  0.00000000000E+00  0.18250000000E+03  0.18250000000E+03  0.00000000000E+00 0.  1.
         11   -1    0    0    0    0 -0.00000000000E+00 -0.00000000000E+00 -0.18250000000E+03  0.18250000000E+03  0.00000000000E+00 0.  1.
         23    2    1    2    0    0  0.30740806021E+02 -0.79490409052E+01  0.11183588550E+03  0.14826802491E+03  0.92021505740E+02 0.  0.
        -11    1    1    2    0    0  0.53303826550E+02  0.54095068502E+02 -0.91157350405E+02  0.11864753219E+03  0.00000000000E+00 0.  1.
         11    1    1    2    0    0 -0.84044632571E+02 -0.46146027597E+02 -0.20678535091E+02  0.98084442908E+02  0.00000000000E+00 0.  1.
        -15    1    3    3    0    0  0.54728223198E+02  0.21677834384E+02  0.73395791980E+02  0.94102109048E+02  0.17770000000E+01 0. -1.
         15    1    3    3    0    0 -0.23987417176E+02 -0.29626875289E+02  0.38440093516E+02  0.54165915857E+02  0.17770000000E+01 0.  1.
</event>
<event>
 7    1  0.2537562E-007  0.1548675E+03  0.7546771E-02  0.1092861E+00
        -11   -1    0    0    0    0  0.00000000000E+00  0.00000000000E+00  0.18250000000E+03  0.18250000000E+03  0.00000000000E+00 0. -1.
         11   -1    0    0    0    0 -0.00000000000E+00 -0.00000000000E+00 -0.18250000000E+03  0.18250000000E+03  0.00000000000E+00 0. -1.
         23    2    1    2    0    0 -0.89959995196E+02  0.47747400450E+02  0.94824529792E+02  0.16730110672E+03  0.92872783278E+02 0.  0.
        -11    1    1    2    0    0  0.15620166680E+02 -0.60410210611E+02 -0.10445826494E+03  0.12167543823E+03  0.00000000000E+00 0. -1.
         11    1    1    2    0    0  0.74339828516E+02  0.12662810161E+02  0.96337351517E+01  0.76023455051E+02  0.00000000000E+00 0. -1.
        -15    1    3    3    0    0 -0.28877013720E+02  0.63691620584E+02  0.71356715881E+02  0.99927188914E+02  0.17770000000E+01 0. -1.
         15    1    3    3    0    0 -0.61082981476E+02 -0.15944220134E+02  0.23467813912E+02  0.67373917805E+02  0.17770000000E+01 0.  1.
</event>
<event>
 7    1  0.2537562E-007  0.2101140E+03  0.7546771E-02  0.1048379E+00
        -11   -1    0    0    0    0  0.00000000000E+00  0.00000000000E+00  0.18250000000E+03  0.18250000000E+03  0.00000000000E+00 0.  1.
         11   -1    0    0    0    0 -0.00000000000E+00 -0.00000000000E+00 -0.18250000000E+03  0.18250000000E+03  0.00000000000E+00 0.  1.
         23    2    1    2    0    0 -0.57307382604E+02 -0.21007993466E+02  0.53003911121E+02  0.11239721978E+03  0.78091283316E+02 0.  0.
        -11    1    1    2    0    0  0.72736234363E+02  0.11528922945E+03 -0.73535839361E+02  0.15488604162E+03  0.00000000000E+00 0.  1.
         11    1    1    2    0    0 -0.15428851759E+02 -0.94281235987E+02  0.20531928240E+02  0.97716738603E+02  0.00000000000E+00 0.  1.
        -15    1    3    3    0    0  0.67751086264E+01 -0.16990409081E+02 -0.11246577159E+02  0.21545749568E+02  0.17770000000E+01 0. -1.
         15    1    3    3    0    0 -0.64082491230E+02 -0.40175843847E+01  0.64250488280E+02  0.90851470213E+02  0.17770000000E+01 0.  1.
</event>
<event>
 7    1  0.2537562E-007  0.1746115E+03  0.7546771E-02  0.1074913E+00
        -11   -1    0    0    0    0  0.00000000000E+00  0.00000000000E+00  0.18250000000E+03  0.18250000000E+03  0.00000000000E+00 0. -1.
         11   -1    0    0    0    0 -0.00000000000E+00 -0.00000000000E+00 -0.18250000000E+03  0.18250000000E+03  0.00000000000E+00 0.  1.
         23    2    1    2    0    0 -0.35161772169E+02  0.65706875784E+01  0.14114443117E+03  0.17198545604E+03  0.91529899391E+02 0.  0.
        -11    1    1    2    0    0 -0.61440214725E+01 -0.38677655561E+02  0.33841317021E+01  0.39308553610E+02  0.00000000000E+00 0. -1.
         11    1    1    2    0    0  0.41305793642E+02  0.32106967982E+02 -0.14452856287E+03  0.15370599035E+03  0.00000000000E+00 0.  1.
        -15    1    3    3    0    0 -0.22257154871E+02  0.31799575251E+02  0.13365611270E+02  0.41090037999E+02  0.17770000000E+01 0.  1.
         15    1    3    3    0    0 -0.12904617298E+02 -0.25228887673E+02  0.12777881990E+03  0.13089541805E+03  0.17770000000E+01 0. -1.
</event>
<event>
 7    1  0.2537562E-007  0.1853654E+03  0.7546771E-02  0.1066197E+00
        -11   -1    0    0    0    0  0.00000000000E+00  0.00000000000E+00  0.18250000000E+03  0.18250000000E+03  0.00000000000E+00 0.  1.
         11   -1    0    0    0    0 -0.00000000000E+00 -0.00000000000E+00 -0.18250000000E+03  0.18250000000E+03  0.00000000000E+00 0.  1.
         23    2    1    2    0    0  0.15088765934E+03  0.53108337349E+02  0.17850589830E+02  0.18536542784E+03  0.91946272599E+02 0.  0.
        -11    1    1    2    0    0 -0.11856621772E+03 -0.27269011137E+02  0.20309096470E+02  0.12334507024E+03  0.00000000000E+00 0.  1.
         11    1    1    2    0    0 -0.32321441616E+02 -0.25839326212E+02 -0.38159686300E+02  0.56289501915E+02  0.00000000000E+00 0.  1.
        -15    1    3    3    0    0  0.65061439205E+02  0.14821219621E+02 -0.37217806194E+02  0.76426319088E+02  0.17770000000E+01 0.  1.
         15    1    3    3    0    0  0.85826220135E+02  0.38287117728E+02  0.55068396024E+02  0.10893910875E+03  0.17770000000E+01 0. -1.
</event>
<event>
 7    1  0.2537562E-007  0.1877879E+03  0.7546771E-02  0.1064322E+00
        -11   -1    0    0    0    0  0.00000000000E+00  0.00000000000E+00  0.18250000000E+03  0.18250000000E+03  0.00000000000E+00 0.  1.
         11   -1    0    0    0    0 -0.00000000000E+00 -0.00000000000E+00 -0.18250000000E+03  0.18250000000E+03  0.00000000000E+00 0.  1.
         23    2    1    2    0    0 -0.31467264817E+02 -0.22681771578E+02  0.15691976163E+03  0.18562915448E+03  0.91267299123E+02 0.  0.
        -11    1    1    2    0    0 -0.12526128488E+02 -0.23533353540E+01  0.17112692318E+01  0.12859647140E+02  0.00000000000E+00 0.  1.
         11    1    1    2    0    0  0.43993393305E+02  0.25035106932E+02 -0.15863103086E+03  0.16651119838E+03  0.00000000000E+00 0.  1.
        -15    1    3    3    0    0  0.85181246619E+01 -0.49875821295E+02  0.75125822541E+02  0.90593614229E+02  0.17770000000E+01 0.  1.
         15    1    3    3    0    0 -0.39985389479E+02  0.27194049717E+02  0.81793939085E+02  0.95035540256E+02  0.17770000000E+01 0. -1.
</event>
<event>
 7    1  0.2537562E-007  0.1663466E+03  0.7546771E-02  0.1082093E+00
        -11   -1    0    0    0    0  0.00000000000E+00  0.00000000000E+00  0.18250000000E+03  0.18250000000E+03  0.00000000000E+00 0. -1.
         11   -1    0    0    0    0 -0.00000000000E+00 -0.00000000000E+00 -0.18250000000E+03  0.18250000000E+03  0.00000000000E+00 0.  1.
         23    2    1    2    0    0  0.66682114033E+02  0.11169215473E+03 -0.40998928856E+02  0.16353549710E+03  0.90229179787E+02 0.  0.
        -11    1    1    2    0    0 -0.21890027561E+02 -0.13035612019E+03  0.65033532949E+02  0.14731344740E+03  0.00000000000E+00 0. -1.
         11    1    1    2    0    0 -0.44792086472E+02  0.18663965466E+02 -0.24034604093E+02  0.54151055496E+02  0.00000000000E+00 0.  1.
        -15    1    3    3    0    0  0.46846439182E+02  0.11362385451E+03 -0.59252700701E+02  0.13645149118E+03  0.17770000000E+01 0.  1.
         15    1    3    3    0    0  0.19835674851E+02 -0.19316997812E+01  0.18253771845E+02  0.27084005915E+02  0.17770000000E+01 0. -1.
</event>
<event>
 7    1  0.2537562E-007  0.1455898E+03  0.7546771E-02  0.1102342E+00
        -11   -1    0    0    0    0  0.00000000000E+00  0.00000000000E+00  0.18250000000E+03  0.18250000000E+03  0.00000000000E+00 0. -1.
         11   -1    0    0    0    0 -0.00000000000E+00 -0.00000000000E+00 -0.18250000000E+03  0.18250000000E+03  0.00000000000E+00 0.  1.
         23    2    1    2    0    0  0.31240923442E+02 -0.48800978618E+02  0.47108595744E+02  0.11800112317E+03  0.91364733159E+02 0.  0.
        -11    1    1    2    0    0 -0.18656281597E+02 -0.51027504460E+02  0.72562745220E+02  0.90648855747E+02  0.00000000000E+00 0. -1.
         11    1    1    2    0    0 -0.12584641844E+02  0.99828483078E+02 -0.11967134096E+03  0.15635002108E+03  0.00000000000E+00 0.  1.
        -15    1    3    3    0    0  0.46615130626E+02 -0.50564877271E+02  0.64744536010E+02  0.94471106106E+02  0.17770000000E+01 0. -1.
         15    1    3    3    0    0 -0.15374207185E+02  0.17638986534E+01 -0.17635940266E+02  0.23530017065E+02  0.17770000000E+01 0.  1.
</event>
<event>
 7    1  0.2537562E-007  0.1514217E+03  0.7546771E-02  0.1096295E+00
        -11   -1    0    0    0    0  0.00000000000E+00  0.00000000000E+00  0.18250000000E+03  0.18250000000E+03  0.00000000000E+00 0. -1.
         11   -1    0    0    0    0 -0.00000000000E+00 -0.00000000000E+00 -0.18250000000E+03  0.18250000000E+03  0.00000000000E+00 0.  1.
         23    2    1    2    0    0  0.16692172334E+01  0.51617800827E+02  0.72280526792E+02  0.12727433675E+03  0.91143286063E+02 0.  0.
        -11    1    1    2    0    0 -0.56104880834E+02  0.35579107345E+02  0.46161031795E+02  0.80897907199E+02  0.00000000000E+00 0. -1.
         11    1    1    2    0    0  0.54435663600E+02 -0.87196908171E+02 -0.11844155859E+03  0.15682775605E+03  0.00000000000E+00 0.  1.
        -15    1    3    3    0    0 -0.39523140010E+02  0.19425322498E+01  0.34135971989E+02  0.52290289160E+02  0.17770000000E+01 0. -1.
         15    1    3    3    0    0  0.41192357243E+02  0.49675268577E+02  0.38144554803E+02  0.74984047594E+02  0.17770000000E+01 0.  1.
</event>
<event>
 7    1  0.2537562E-007  0.1893863E+03  0.7546771E-02  0.1063102E+00
        -11   -1    0    0    0    0  0.00000000000E+00  0.00000000000E+00  0.18250000000E+03  0.18250000000E+03  0.00000000000E+00 0. -1.
         11   -1    0    0    0    0 -0.00000000000E+00 -0.00000000000E+00 -0.18250000000E+03  0.18250000000E+03  0.00000000000E+00 0. -1.
         23    2    1    2    0    0 -0.25659351119E+02  0.35567887134E+01  0.16448798656E+03  0.18938634982E+03  0.90221054794E+02 0.  0.
        -11    1    1    2    0    0 -0.12662914816E+02  0.82843510891E+01 -0.87550040613E+02  0.88848126013E+02  0.00000000000E+00 0. -1.
         11    1    1    2    0    0  0.38322265935E+02 -0.11841139802E+02 -0.76937945947E+02  0.86765524171E+02  0.00000000000E+00 0. -1.
        -15    1    3    3    0    0  0.13679665773E+02 -0.35693658049E+02  0.66852613782E+02  0.77029865500E+02  0.17770000000E+01 0.  1.
         15    1    3    3    0    0 -0.39339016892E+02  0.39250446763E+02  0.97635372779E+02  0.11235648432E+03  0.17770000000E+01 0. -1.
</event>
<event>
 7    1  0.2537562E-007  0.1447504E+03  0.7546771E-02  0.1103238E+00
        -11   -1    0    0    0    0  0.00000000000E+00  0.00000000000E+00  0.18250000000E+03  0.18250000000E+03  0.00000000000E+00 0.  1.
         11   -1    0    0    0    0 -0.00000000000E+00 -0.00000000000E+00 -0.18250000000E+03  0.18250000000E+03  0.00000000000E+00 0.  1.
         23    2    1    2    0    0 -0.37512961875E-01  0.71179039188E+02  0.67797910655E+02  0.13077563899E+03  0.86251110348E+02 0.  0.
        -11    1    1    2    0    0  0.86951060379E+02  0.60787839278E+01  0.18883135210E+02  0.89185263976E+02  0.00000000000E+00 0.  1.
         11    1    1    2    0    0 -0.86913547417E+02 -0.77257823116E+02 -0.86681045865E+02  0.14503909704E+03  0.00000000000E+00 0.  1.
        -15    1    3    3    0    0 -0.34508002626E+01 -0.17915900361E+02 -0.67242752665E+00  0.18343865350E+02  0.17770000000E+01 0. -1.
         15    1    3    3    0    0  0.34132873008E+01  0.89094939549E+02  0.68470338181E+02  0.11243177364E+03  0.17770000000E+01 0.  1.
</event>
<event>
 7    1  0.2537562E-007  0.1561712E+03  0.7546771E-02  0.1091588E+00
        -11   -1    0    0    0    0  0.00000000000E+00  0.00000000000E+00  0.18250000000E+03  0.18250000000E+03  0.00000000000E+00 0. -1.
         11   -1    0    0    0    0 -0.00000000000E+00 -0.00000000000E+00 -0.18250000000E+03  0.18250000000E+03  0.00000000000E+00 0. -1.
         23    2    1    2    0    0 -0.59541046931E+02  0.37009345205E+02 -0.64510095117E+02  0.13221889518E+03  0.91681273820E+02 0.  0.
        -11    1    1    2    0    0  0.11047891701E+03 -0.88618439580E+02  0.73751726509E+02  0.15968135802E+03  0.00000000000E+00 0. -1.
         11    1    1    2    0    0 -0.50937870079E+02  0.51609094375E+02 -0.92416313927E+01  0.73099746793E+02  0.00000000000E+00 0. -1.
        -15    1    3    3    0    0 -0.37649001159E+02  0.39053935598E+01  0.17008577525E+02  0.41534910925E+02  0.17770000000E+01 0.  1.
         15    1    3    3    0    0 -0.21892045773E+02  0.33103951646E+02 -0.81518672642E+02  0.90683984258E+02  0.17770000000E+01 0. -1.
</event>
