<event>
 6    1  0.3691007E-002  0.4712690E+02  0.7546771E-02  0.1310792E+00
        -11   -1    0    0    0    0  0.00000000000E+00  0.00000000000E+00  0.45600000000E+02  0.45600000000E+02  0.00000000000E+00 0.  1.
         11   -1    0    0    0    0 -0.00000000000E+00 -0.00000000000E+00 -0.45600000000E+02  0.45600000000E+02  0.00000000000E+00 0.  1.
        -11    1    1    2    0    0 -0.14956656100E+01  0.18460660098E+00  0.44047322872E+02  0.44073095505E+02  0.00000000000E+00 0.  1.
         11    1    1    2    0    0 -0.26717947572E+01  0.20797402155E+01 -0.38479650508E+02  0.38628322637E+02  0.00000000000E+00 0.  1.
        -15    1    1    2    0    0  0.12501870496E+01  0.10057896239E+00 -0.12591069351E+01  0.25131977759E+01  0.17770000000E+01 0. -1.
         15    1    1    2    0    0  0.29172733177E+01 -0.23649257789E+01 -0.43085654290E+01  0.59853840817E+01  0.17770000000E+01 0.  1.
</event>
<event>
 6    1  0.3691007E-002  0.4296763E+02  0.7546771E-02  0.1331513E+00
        -11   -1    0    0    0    0  0.00000000000E+00  0.00000000000E+00  0.45600000000E+02  0.45600000000E+02  0.00000000000E+00 0.  1.
         11   -1    0    0    0    0 -0.00000000000E+00 -0.00000000000E+00 -0.45600000000E+02  0.45600000000E+02  0.00000000000E+00 0. -1.
        -11    1    1    2    0    0  0.21792421620E+00 -0.12264751338E+01  0.43074067793E+02  0.43092076400E+02  0.00000000000E+00 0.  1.
         11    1    1    2    0    0 -0.12003459401E+01  0.40442947671E+00 -0.42834346410E+02  0.42853070204E+02  0.00000000000E+00 0. -1.
        -15    1    1    2    0    0  0.65065153336E+00 -0.39996449038E+00 -0.17441922235E+01  0.26044681845E+01  0.17770000000E+01 0.  1.
         15    1    1    2    0    0  0.33177019053E+00  0.12220101475E+01  0.15044708398E+01  0.26503852112E+01  0.17770000000E+01 0.  1.
</event>
<event>
 6    1  0.3691007E-002  0.5168288E+02  0.7546771E-02  0.1290747E+00
        -11   -1    0    0    0    0  0.00000000000E+00  0.00000000000E+00  0.45600000000E+02  0.45600000000E+02  0.00000000000E+00 0. -1.
         11   -1    0    0    0    0 -0.00000000000E+00 -0.00000000000E+00 -0.45600000000E+02  0.45600000000E+02  0.00000000000E+00 0.  1.
        -11    1    1    2    0    0  0.53709765136E+01  0.39976698389E+01  0.38945784849E+02  0.39517121737E+02  0.00000000000E+00 0. -1.
         11    1    1    2    0    0 -0.25360265074E+01  0.36914962277E+00 -0.13703700946E+02  0.13941274028E+02  0.00000000000E+00 0.  1.
        -15    1    1    2    0    0  0.63364372327E+00  0.19046544304E+01  0.55035498693E+01  0.61217646991E+01  0.17770000000E+01 0.  1.
         15    1    1    2    0    0 -0.34685937295E+01 -0.62714738921E+01 -0.30745633772E+02  0.31619839536E+02  0.17770000000E+01 0. -1.
</event>
<event>
 6    1  0.3691007E-002  0.4759251E+02  0.7546771E-02  0.1308626E+00
        -11   -1    0    0    0    0  0.00000000000E+00  0.00000000000E+00  0.45600000000E+02  0.45600000000E+02  0.00000000000E+00 0.  1.
         11   -1    0    0    0    0 -0.00000000000E+00 -0.00000000000E+00 -0.45600000000E+02  0.45600000000E+02  0.00000000000E+00 0.  1.
        -11    1    1    2    0    0  0.97752812192E+00  0.16854289938E+01  0.32807687847E+02  0.32865492755E+02  0.00000000000E+00 0.  1.
         11    1    1    2    0    0 -0.12290816460E+01  0.97796426961E+00 -0.43579191133E+02  0.43607487381E+02  0.00000000000E+00 0.  1.
        -15    1    1    2    0    0 -0.89024507696E+00 -0.50149698754E+01  0.10166063217E+02  0.11508650202E+02  0.17770000000E+01 0.  1.
         15    1    1    2    0    0  0.11417986010E+01  0.23515766120E+01  0.60544006926E+00  0.32183696626E+01  0.17770000000E+01 0. -1.
</event>
<event>
 6    1  0.3691007E-002  0.4962623E+02  0.7546771E-02  0.1299489E+00
        -11   -1    0    0    0    0  0.00000000000E+00  0.00000000000E+00  0.45600000000E+02  0.45600000000E+02  0.00000000000E+00 0. -1.
         11   -1    0    0    0    0 -0.00000000000E+00 -0.00000000000E+00 -0.45600000000E+02  0.45600000000E+02  0.00000000000E+00 0.  1.
        -11    1    1    2    0    0  0.65366478524E+00  0.27562372217E+01  0.41477153232E+02  0.41573770114E+02  0.00000000000E+00 0. -1.
         11    1    1    2    0    0 -0.22089368207E+00 -0.79532871688E+00 -0.37850193298E+02  0.37859192734E+02  0.00000000000E+00 0.  1.
        -15    1    1    2    0    0  0.41731994068E+01  0.15439731879E+01 -0.16836650029E+00  0.47943219304E+01  0.17770000000E+01 0.  1.
         15    1    1    2    0    0 -0.46059705099E+01 -0.35048816927E+01 -0.34585934338E+01  0.69727152214E+01  0.17770000000E+01 0. -1.
</event>
<event>
 6    1  0.3691007E-002  0.4738091E+02  0.7546771E-02  0.1309607E+00
        -11   -1    0    0    0    0  0.00000000000E+00  0.00000000000E+00  0.45600000000E+02  0.45600000000E+02  0.00000000000E+00 0. -1.
         11   -1    0    0    0    0 -0.00000000000E+00 -0.00000000000E+00 -0.45600000000E+02  0.45600000000E+02  0.00000000000E+00 0. -1.
        -11    1    1    2    0    0  0.24503334906E+01  0.31777264193E+00  0.39120024505E+02  0.39197977383E+02  0.00000000000E+00 0. -1.
         11    1    1    2    0    0 -0.82043338835E+00  0.33977605616E+01 -0.43679456728E+02  0.43819092047E+02  0.00000000000E+00 0. -1.
        -15    1    1    2    0    0  0.70727352916E-01 -0.30873625701E+01  0.80820844104E+00  0.36534558820E+01  0.17770000000E+01 0.  1.
         15    1    1    2    0    0 -0.17006274551E+01 -0.62817063341E+00  0.37512237817E+01  0.45294746877E+01  0.17770000000E+01 0. -1.
</event>
<event>
 6    1  0.3691007E-002  0.4629427E+02  0.7546771E-02  0.1314738E+00
        -11   -1    0    0    0    0  0.00000000000E+00  0.00000000000E+00  0.45600000000E+02  0.45600000000E+02  0.00000000000E+00 0.  1.
         11   -1    0    0    0    0 -0.00000000000E+00 -0.00000000000E+00 -0.45600000000E+02  0.45600000000E+02  0.00000000000E+00 0. -1.
        -11    1    1    2    0    0  0.17951842268E+00 -0.62872154118E+00  0.36040805218E+02  0.36046735752E+02  0.00000000000E+00 0.  1.
         11    1    1    2    0    0  0.64611684802E+00  0.77380502940E-01 -0.44901019199E+02  0.44905734376E+02  0.00000000000E+00 0. -1.
        -15    1    1    2    0    0 -0.16475414896E+01 -0.73841412863E+00  0.62228987666E+01  0.67187682238E+01  0.17770000000E+01 0.  1.
         15    1    1    2    0    0  0.82190621885E+00  0.12897551669E+01  0.26373152151E+01  0.35287616478E+01  0.17770000000E+01 0.  1.
</event>
<event>
 6    1  0.3691007E-002  0.3251814E+02  0.7546771E-02  0.1398282E+00
        -11   -1    0    0    0    0  0.00000000000E+00  0.00000000000E+00  0.45600000000E+02  0.45600000000E+02  0.00000000000E+00 0. -1.
         11   -1    0    0    0    0 -0.00000000000E+00 -0.00000000000E+00 -0.45600000000E+02  0.45600000000E+02  0.00000000000E+00 0.  1.
        -11    1    1    2    0    0 -0.47593694943E+00 -0.43879980781E+00  0.16139948715E+02  0.16152925611E+02  0.00000000000E+00 0. -1.
         11    1    1    2    0    0 -0.28286491885E+01  0.17783332104E+01 -0.37015345477E+02  0.37165838159E+02  0.00000000000E+00 0.  1.
        -15    1    1    2    0    0 -0.55136843414E+00 -0.53679386843E+01 -0.72174471083E+01  0.91852079252E+01  0.17770000000E+01 0.  1.
         15    1    1    2    0    0  0.38559545721E+01  0.40284052818E+01  0.28092843870E+02  0.28696028305E+02  0.17770000000E+01 0. -1.
</event>
<event>
 6    1  0.3691007E-002  0.4732233E+02  0.7546771E-02  0.1309880E+00
        -11   -1    0    0    0    0  0.00000000000E+00  0.00000000000E+00  0.45600000000E+02  0.45600000000E+02  0.00000000000E+00 0. -1.
         11   -1    0    0    0    0 -0.00000000000E+00 -0.00000000000E+00 -0.45600000000E+02  0.45600000000E+02  0.00000000000E+00 0. -1.
        -11    1    1    2    0    0  0.18721931336E+01 -0.14787509488E+01  0.38424876410E+02  0.38498869316E+02  0.00000000000E+00 0. -1.
         11    1    1    2    0    0  0.36135468855E-01 -0.21943515131E+01 -0.43822751772E+02  0.43877671511E+02  0.00000000000E+00 0. -1.
        -15    1    1    2    0    0 -0.10040926113E+01  0.34140724430E+01  0.55260964546E+01  0.68087857687E+01  0.17770000000E+01 0. -1.
         15    1    1    2    0    0 -0.90423599113E+00  0.25903001886E+00 -0.12822109220E+00  0.20146734045E+01  0.17770000000E+01 0.  1.
</event>
<event>
 6    1  0.3691007E-002  0.4678293E+02  0.7546771E-02  0.1312411E+00
        -11   -1    0    0    0    0  0.00000000000E+00  0.00000000000E+00  0.45600000000E+02  0.45600000000E+02  0.00000000000E+00 0.  1.
         11   -1    0    0    0    0 -0.00000000000E+00 -0.00000000000E+00 -0.45600000000E+02  0.45600000000E+02  0.00000000000E+00 0.  1.
        -11    1    1    2    0    0 -0.18017126838E+00  0.84802598953E+00  0.40343271723E+02  0.40352585829E+02  0.00000000000E+00 0.  1.
         11    1    1    2    0    0 -0.16900819001E-01  0.23655135260E+01 -0.44354034592E+02  0.44417072444E+02  0.00000000000E+00 0.  1.
        -15    1    1    2    0    0 -0.19119064933E+00 -0.21531996440E+01  0.29738843753E+01  0.40834470547E+01  0.17770000000E+01 0. -1.
         15    1    1    2    0    0  0.38826273671E+00 -0.10603398716E+01  0.10368784939E+01  0.23468946732E+01  0.17770000000E+01 0.  1.
</event>
<event>
 6    1  0.3691007E-002  0.4937837E+02  0.7546771E-02  0.1300576E+00
        -11   -1    0    0    0    0  0.00000000000E+00  0.00000000000E+00  0.45600000000E+02  0.45600000000E+02  0.00000000000E+00 0.  1.
         11   -1    0    0    0    0 -0.00000000000E+00 -0.00000000000E+00 -0.45600000000E+02  0.45600000000E+02  0.00000000000E+00 0. -1.
        -11    1    1    2    0    0 -0.80635379396E+00  0.12449895124E+00  0.41813674369E+02  0.41821634003E+02  0.00000000000E+00 0.  1.
         11    1    1    2    0    0 -0.10808253157E+00 -0.11320522006E+01 -0.25615414807E+02  0.25640645462E+02  0.00000000000E+00 0. -1.
        -15    1    1    2    0    0 -0.36684742066E+01  0.31455774412E+01 -0.17483237495E+02  0.18225632575E+02  0.17770000000E+01 0. -1.
         15    1    1    2    0    0  0.45829105321E+01 -0.21380241919E+01  0.12849779330E+01  0.55120879600E+01  0.17770000000E+01 0.  1.
</event>
<event>
 6    1  0.3691007E-002  0.4622851E+02  0.7546771E-02  0.1315054E+00
        -11   -1    0    0    0    0  0.00000000000E+00  0.00000000000E+00  0.45600000000E+02  0.45600000000E+02  0.00000000000E+00 0. -1.
         11   -1    0    0    0    0 -0.00000000000E+00 -0.00000000000E+00 -0.45600000000E+02  0.45600000000E+02  0.00000000000E+00 0.  1.
        -11    1    1    2    0    0  0.52026535294E+00  0.84880484302E+00  0.44960472973E+02  0.44971494034E+02  0.00000000000E+00 0. -1.
         11    1    1    2    0    0 -0.20329142608E-01 -0.74253022189E+00 -0.20148926630E+02  0.20162614134E+02  0.00000000000E+00 0.  1.
        -15    1    1    2    0    0  0.83169062684E+00  0.36035757595E+00 -0.11637058513E+01  0.23094387175E+01  0.17770000000E+01 0.  1.
         15    1    1    2    0    0 -0.13316268372E+01 -0.46663219708E+00 -0.23647840492E+02  0.23756453114E+02  0.17770000000E+01 0.  1.
</event>
<event>
 6    1  0.3691007E-002  0.4598891E+02  0.7546771E-02  0.1316209E+00
        -11   -1    0    0    0    0  0.00000000000E+00  0.00000000000E+00  0.45600000000E+02  0.45600000000E+02  0.00000000000E+00 0.  1.
         11   -1    0    0    0    0 -0.00000000000E+00 -0.00000000000E+00 -0.45600000000E+02  0.45600000000E+02  0.00000000000E+00 0.  1.
        -11    1    1    2    0    0  0.12665027688E+01  0.41478241162E+00  0.45191445270E+02  0.45211091552E+02  0.00000000000E+00 0.  1.
         11    1    1    2    0    0  0.52943810959E-01  0.17607368348E+01 -0.63508437684E+01  0.65906155873E+01  0.00000000000E+00 0.  1.
        -15    1    1    2    0    0 -0.67768188720E+00 -0.53990819689E+00 -0.39384913667E+01  0.44068352416E+01  0.17770000000E+01 0. -1.
         15    1    1    2    0    0 -0.64176469258E+00 -0.16356110495E+01 -0.34902110135E+02  0.34991457619E+02  0.17770000000E+01 0.  1.
</event>
<event>
 6    1  0.3691007E-002  0.4711464E+02  0.7546771E-02  0.1310850E+00
        -11   -1    0    0    0    0  0.00000000000E+00  0.00000000000E+00  0.45600000000E+02  0.45600000000E+02  0.00000000000E+00 0.  1.
         11   -1    0    0    0    0 -0.00000000000E+00 -0.00000000000E+00 -0.45600000000E+02  0.45600000000E+02  0.00000000000E+00 0. -1.
        -11    1    1    2    0    0  0.66594992780E-01  0.15082182112E+01  0.44059503174E+02  0.44085360121E+02  0.00000000000E+00 0.  1.
         11    1    1    2    0    0  0.16493455757E+01  0.27084210148E-01 -0.38476510848E+02  0.38511854816E+02  0.00000000000E+00 0. -1.
        -15    1    1    2    0    0 -0.16047513826E+01 -0.18100833484E+00 -0.58750382941E+01  0.63467940706E+01  0.17770000000E+01 0.  1.
         15    1    1    2    0    0 -0.11118918586E+00 -0.13542940865E+01  0.29204596769E+00  0.22559909918E+01  0.17770000000E+01 0.  1.
</event>
<event>
 6    1  0.3691007E-002  0.4650257E+02  0.7546771E-02  0.1313742E+00
        -11   -1    0    0    0    0  0.00000000000E+00  0.00000000000E+00  0.45600000000E+02  0.45600000000E+02  0.00000000000E+00 0. -1.
         11   -1    0    0    0    0 -0.00000000000E+00 -0.00000000000E+00 -0.45600000000E+02  0.45600000000E+02  0.00000000000E+00 0. -1.
        -11    1    1    2    0    0 -0.98747019721E-01  0.77008501104E+00  0.35288045671E+02  0.35296585518E+02  0.00000000000E+00 0. -1.
         11    1    1    2    0    0 -0.15924474362E+01  0.37222467284E+00 -0.44667505352E+02  0.44697432526E+02  0.00000000000E+00 0. -1.
        -15    1    1    2    0    0  0.90569812129E+00 -0.25855016665E+01  0.73673663557E+01  0.80585931758E+01  0.17770000000E+01 0.  1.
         15    1    1    2    0    0  0.78549633461E+00  0.14431919826E+01  0.20120933246E+01  0.31473887808E+01  0.17770000000E+01 0. -1.
</event>
<event>
 6    1  0.3691007E-002  0.4668790E+02  0.7546771E-02  0.1312861E+00
        -11   -1    0    0    0    0  0.00000000000E+00  0.00000000000E+00  0.45600000000E+02  0.45600000000E+02  0.00000000000E+00 0. -1.
         11   -1    0    0    0    0 -0.00000000000E+00 -0.00000000000E+00 -0.45600000000E+02  0.45600000000E+02  0.00000000000E+00 0.  1.
        -11    1    1    2    0    0 -0.14563093723E+01  0.85667627585E+00  0.32747389670E+02  0.32790947858E+02  0.00000000000E+00 0. -1.
         11    1    1    2    0    0  0.61752454229E+00  0.12703540709E-01 -0.44507816517E+02  0.44512102052E+02  0.00000000000E+00 0.  1.
        -15    1    1    2    0    0  0.94336611134E+00  0.56679074044E+00  0.18572170258E+00  0.20984310602E+01  0.17770000000E+01 0.  1.
         15    1    1    2    0    0 -0.10458128128E+00 -0.14361705570E+01  0.11574705145E+02  0.11798519030E+02  0.17770000000E+01 0.  1.
</event>
<event>
 6    1  0.3691007E-002  0.1929807E+02  0.7546771E-02  0.1543825E+00
        -11   -1    0    0    0    0  0.00000000000E+00  0.00000000000E+00  0.45600000000E+02  0.45600000000E+02  0.00000000000E+00 0. -1.
         11   -1    0    0    0    0 -0.00000000000E+00 -0.00000000000E+00 -0.45600000000E+02  0.45600000000E+02  0.00000000000E+00 0.  1.
        -11    1    1    2    0    0 -0.88646181733E+00  0.58409875569E+00  0.30786252805E+02  0.30804550763E+02  0.00000000000E+00 0. -1.
         11    1    1    2    0    0 -0.29736566907E+00  0.11297275726E+01 -0.29645791452E+02  0.29668799462E+02  0.00000000000E+00 0.  1.
        -15    1    1    2    0    0  0.13137965453E+02 -0.10706934147E+01  0.80347693667E+01  0.15539233199E+02  0.17770000000E+01 0. -1.
         15    1    1    2    0    0 -0.11954137967E+02 -0.64313291352E+00 -0.91752307199E+01  0.15187416576E+02  0.17770000000E+01 0.  1.
</event>
<event>
 6    1  0.3691007E-002  0.4741629E+02  0.7546771E-02  0.1309443E+00
        -11   -1    0    0    0    0  0.00000000000E+00  0.00000000000E+00  0.45600000000E+02  0.45600000000E+02  0.00000000000E+00 0.  1.
         11   -1    0    0    0    0 -0.00000000000E+00 -0.00000000000E+00 -0.45600000000E+02  0.45600000000E+02  0.00000000000E+00 0.  1.
        -11    1    1    2    0    0  0.13862695239E+01 -0.32048575908E+01  0.36547574282E+02  0.36714003341E+02  0.00000000000E+00 0.  1.
         11    1    1    2    0    0 -0.36240813808E+01  0.26836903923E+01 -0.43550859695E+02  0.43783713184E+02  0.00000000000E+00 0.  1.
        -15    1    1    2    0    0  0.17956113837E+01 -0.29864831898E-01 -0.81413563296E+00  0.26543658336E+01  0.17770000000E+01 0.  1.
         15    1    1    2    0    0  0.44220047313E+00  0.55103203033E+00  0.78174210460E+01  0.80479176417E+01  0.17770000000E+01 0. -1.
</event>
<event>
 6    1  0.3691007E-002  0.4770368E+02  0.7546771E-02  0.1308114E+00
        -11   -1    0    0    0    0  0.00000000000E+00  0.00000000000E+00  0.45600000000E+02  0.45600000000E+02  0.00000000000E+00 0. -1.
         11   -1    0    0    0    0 -0.00000000000E+00 -0.00000000000E+00 -0.45600000000E+02  0.45600000000E+02  0.00000000000E+00 0.  1.
        -11    1    1    2    0    0  0.72348730237E+00  0.56925761014E+00  0.34497533966E+02  0.34509815094E+02  0.00000000000E+00 0. -1.
         11    1    1    2    0    0  0.43736909173E+00  0.72097243287E+00 -0.43488140385E+02  0.43496315328E+02  0.00000000000E+00 0.  1.
        -15    1    1    2    0    0  0.31730781101E-01 -0.37981541308E+01  0.89645342914E+01  0.98968472609E+01  0.17770000000E+01 0.  1.
         15    1    1    2    0    0 -0.11925871752E+01  0.25079240878E+01  0.26072128345E-01  0.32970223167E+01  0.17770000000E+01 0. -1.
</event>
<event>
 6    1  0.3691007E-002  0.4620819E+02  0.7546771E-02  0.1315152E+00
        -11   -1    0    0    0    0  0.00000000000E+00  0.00000000000E+00  0.45600000000E+02  0.45600000000E+02  0.00000000000E+00 0.  1.
         11   -1    0    0    0    0 -0.00000000000E+00 -0.00000000000E+00 -0.45600000000E+02  0.45600000000E+02  0.00000000000E+00 0. -1.
        -11    1    1    2    0    0  0.23750023571E+00  0.26826983250E+01  0.25696364759E+02  0.25837113587E+02  0.00000000000E+00 0.  1.
         11    1    1    2    0    0 -0.88291822301E+00  0.13462119857E+01 -0.44962999437E+02  0.44991812029E+02  0.00000000000E+00 0. -1.
        -15    1    1    2    0    0  0.16063500431E+01 -0.38106712740E+01  0.11686437263E+02  0.12523263189E+02  0.17770000000E+01 0.  1.
         15    1    1    2    0    0 -0.96093205581E+00 -0.21823903662E+00  0.75801974151E+01  0.78478111946E+01  0.17770000000E+01 0.  1.
</event>
<event>
 6    1  0.3691007E-002  0.4685744E+02  0.7546771E-02  0.1312059E+00
        -11   -1    0    0    0    0  0.00000000000E+00  0.00000000000E+00  0.45600000000E+02  0.45600000000E+02  0.00000000000E+00 0. -1.
         11   -1    0    0    0    0 -0.00000000000E+00 -0.00000000000E+00 -0.45600000000E+02  0.45600000000E+02  0.00000000000E+00 0. -1.
        -11    1    1    2    0    0  0.20008094665E+00  0.97901828790E+00  0.31606144254E+02  0.31621936434E+02  0.00000000000E+00 0. -1.
         11    1    1    2    0    0 -0.19138317767E+00  0.67927501460E+00 -0.44336945969E+02  0.44342562172E+02  0.00000000000E+00 0. -1.
        -15    1    1    2    0    0 -0.92345528644E+00  0.71253298785E+00 -0.70832613674E-02  0.21256180507E+01  0.17770000000E+01 0. -1.
         15    1    1    2    0    0  0.91475751746E+00 -0.23708262904E+01  0.12737884976E+02  0.13109883344E+02  0.17770000000E+01 0. -1.
</event>
<event>
 6    1  0.3691007E-002  0.4197264E+02  0.7546771E-02  0.1336874E+00
        -11   -1    0    0    0    0  0.00000000000E+00  0.00000000000E+00  0.45600000000E+02  0.45600000000E+02  0.00000000000E+00 0.  1.
         11   -1    0    0    0    0 -0.00000000000E+00 -0.00000000000E+00 -0.45600000000E+02  0.45600000000E+02  0.00000000000E+00 0.  1.
        -11    1    1    2    0    0  0.14746376880E+01  0.24592083439E+00  0.42181088000E+02  0.42207572996E+02  0.00000000000E+00 0.  1.
         11    1    1    2    0    0  0.22448962199E+01 -0.16028253962E+01 -0.41741136585E+02  0.41832177707E+02  0.00000000000E+00 0.  1.
        -15    1    1    2    0    0 -0.25223522304E+01  0.54583827599E+00 -0.25543793950E+01  0.40426208444E+01  0.17770000000E+01 0.  1.
         15    1    1    2    0    0 -0.11971816774E+01  0.81106628586E+00  0.21144279799E+01  0.31176284530E+01  0.17770000000E+01 0. -1.
</event>
<event>
 6    1  0.3691007E-002  0.4215612E+02  0.7546771E-02  0.1335873E+00
        -11   -1    0    0    0    0  0.00000000000E+00  0.00000000000E+00  0.45600000000E+02  0.45600000000E+02  0.00000000000E+00 0.  1.
         11   -1    0    0    0    0 -0.00000000000E+00 -0.00000000000E+00 -0.45600000000E+02  0.45600000000E+02  0.00000000000E+00 0. -1.
        -11    1    1    2    0    0 -0.17835707421E+01 -0.22300344892E+01  0.41634161933E+02  0.41731973573E+02  0.00000000000E+00 0.  1.
         11    1    1    2    0    0 -0.24734999916E+01  0.12390458545E+01 -0.42609410278E+02  0.42699125063E+02  0.00000000000E+00 0. -1.
        -15    1    1    2    0    0  0.38850658962E+01 -0.21646959618E+00 -0.21829185250E+00  0.42832203349E+01  0.17770000000E+01 0. -1.
         15    1    1    2    0    0  0.37200483751E+00  0.12074582309E+01  0.11935401979E+01  0.24856810299E+01  0.17770000000E+01 0. -1.
</event>
<event>
 6    1  0.3691007E-002  0.4692442E+02  0.7546771E-02  0.1311743E+00
        -11   -1    0    0    0    0  0.00000000000E+00  0.00000000000E+00  0.45600000000E+02  0.45600000000E+02  0.00000000000E+00 0. -1.
         11   -1    0    0    0    0 -0.00000000000E+00 -0.00000000000E+00 -0.45600000000E+02  0.45600000000E+02  0.00000000000E+00 0. -1.
        -11    1    1    2    0    0  0.10666193978E+01  0.23324257271E+01  0.44201235557E+02  0.44275581435E+02  0.00000000000E+00 0. -1.
         11    1    1    2    0    0  0.12353348424E+01 -0.92709852361E+00 -0.29782552069E+02  0.29822574865E+02  0.00000000000E+00 0. -1.
        -15    1    1    2    0    0  0.13606071344E+01 -0.15215104377E+01 -0.12134183909E+02  0.12432312493E+02  0.17770000000E+01 0.  1.
         15    1    1    2    0    0 -0.36625613746E+01  0.11618323419E+00 -0.22844995794E+01  0.46695312072E+01  0.17770000000E+01 0. -1.
</event>
<event>
 6    1  0.3691007E-002  0.4624560E+02  0.7546771E-02  0.1314972E+00
        -11   -1    0    0    0    0  0.00000000000E+00  0.00000000000E+00  0.45600000000E+02  0.45600000000E+02  0.00000000000E+00 0. -1.
         11   -1    0    0    0    0 -0.00000000000E+00 -0.00000000000E+00 -0.45600000000E+02  0.45600000000E+02  0.00000000000E+00 0. -1.
        -11    1    1    2    0    0 -0.12194655317E+01 -0.34801551756E+00  0.31054088036E+02  0.31079970958E+02  0.00000000000E+00 0. -1.
         11    1    1    2    0    0  0.55796411994E+00  0.28604910503E+00 -0.44950026897E+02  0.44954399852E+02  0.00000000000E+00 0. -1.
        -15    1    1    2    0    0 -0.15450576020E+01 -0.14741905662E+01  0.52725539904E+01  0.59596975930E+01  0.17770000000E+01 0.  1.
         15    1    1    2    0    0  0.22065590137E+01  0.15361569787E+01  0.86233848700E+01  0.92059315966E+01  0.17770000000E+01 0. -1.
</event>
<event>
 6    1  0.3691007E-002  0.4623452E+02  0.7546771E-02  0.1315025E+00
        -11   -1    0    0    0    0  0.00000000000E+00  0.00000000000E+00  0.45600000000E+02  0.45600000000E+02  0.00000000000E+00 0. -1.
         11   -1    0    0    0    0 -0.00000000000E+00 -0.00000000000E+00 -0.45600000000E+02  0.45600000000E+02  0.00000000000E+00 0. -1.
        -11    1    1    2    0    0 -0.98618756199E+00  0.30368124207E-01  0.14728651500E+02  0.14761661936E+02  0.00000000000E+00 0. -1.
         11    1    1    2    0    0  0.19027206277E+01  0.17017361881E+00 -0.44924881360E+02  0.44965478649E+02  0.00000000000E+00 0. -1.
        -15    1    1    2    0    0 -0.23911462261E+01 -0.35736152617E+01  0.18749802533E+02  0.19318414281E+02  0.17770000000E+01 0. -1.
         15    1    1    2    0    0  0.14746131604E+01  0.33730735187E+01  0.11446427328E+02  0.12154445134E+02  0.17770000000E+01 0.  1.
</event>
<event>
 6    1  0.3691007E-002  0.4167781E+02  0.7546771E-02  0.1338496E+00
        -11   -1    0    0    0    0  0.00000000000E+00  0.00000000000E+00  0.45600000000E+02  0.45600000000E+02  0.00000000000E+00 0. -1.
         11   -1    0    0    0    0 -0.00000000000E+00 -0.00000000000E+00 -0.45600000000E+02  0.45600000000E+02  0.00000000000E+00 0.  1.
        -11    1    1    2    0    0  0.57520824505E+00 -0.52597845032E+00  0.41728313075E+02  0.41735591885E+02  0.00000000000E+00 0. -1.
         11    1    1    2    0    0  0.20141475775E+01 -0.24241781903E+01 -0.41593268978E+02  0.41712509570E+02  0.00000000000E+00 0.  1.
        -15    1    1    2    0    0 -0.11288031171E+01  0.44799464948E+01 -0.45580572763E+00  0.49708756708E+01  0.17770000000E+01 0.  1.
         15    1    1    2    0    0 -0.14605527055E+01 -0.15297898542E+01  0.32076163059E+00  0.27810228743E+01  0.17770000000E+01 0. -1.
</event>
<event>
 6    1  0.3691007E-002  0.4623573E+02  0.7546771E-02  0.1315019E+00
        -11   -1    0    0    0    0  0.00000000000E+00  0.00000000000E+00  0.45600000000E+02  0.45600000000E+02  0.00000000000E+00 0.  1.
         11   -1    0    0    0    0 -0.00000000000E+00 -0.00000000000E+00 -0.45600000000E+02  0.45600000000E+02  0.00000000000E+00 0. -1.
        -11    1    1    2    0    0  0.43192438586E+00  0.16648119658E+01  0.35196552996E+02  0.35238551338E+02  0.00000000000E+00 0.  1.
         11    1    1    2    0    0 -0.14109212907E+01 -0.13841715255E+01 -0.44920804664E+02  0.44964267162E+02  0.00000000000E+00 0. -1.
        -15    1    1    2    0    0 -0.73316537526E+00 -0.13255895778E+01  0.33594511079E+01  0.40912540795E+01  0.17770000000E+01 0.  1.
         15    1    1    2    0    0  0.17121622801E+01  0.10449491375E+01  0.63648005600E+01  0.69059274209E+01  0.17770000000E+01 0.  1.
</event>
<event>
 6    1  0.3691007E-002  0.4747709E+02  0.7546771E-02  0.1309161E+00
        -11   -1    0    0    0    0  0.00000000000E+00  0.00000000000E+00  0.45600000000E+02  0.45600000000E+02  0.00000000000E+00 0. -1.
         11   -1    0    0    0    0 -0.00000000000E+00 -0.00000000000E+00 -0.45600000000E+02  0.45600000000E+02  0.00000000000E+00 0.  1.
        -11    1    1    2    0    0  0.22798387669E+01  0.23086270677E+01  0.14004230306E+02  0.14375183136E+02  0.00000000000E+00 0. -1.
         11    1    1    2    0    0 -0.83376976072E+01  0.42511909202E+00 -0.42918472927E+02  0.43722914427E+02  0.00000000000E+00 0.  1.
        -15    1    1    2    0    0  0.37004042052E+01  0.14327270609E+01  0.27446587306E+02  0.27788821167E+02  0.17770000000E+01 0. -1.
         15    1    1    2    0    0  0.23574546350E+01 -0.41664732206E+01  0.14676553153E+01  0.53130812697E+01  0.17770000000E+01 0.  1.
</event>
<event>
 6    1  0.3691007E-002  0.4159246E+02  0.7546771E-02  0.1338968E+00
        -11   -1    0    0    0    0  0.00000000000E+00  0.00000000000E+00  0.45600000000E+02  0.45600000000E+02  0.00000000000E+00 0.  1.
         11   -1    0    0    0    0 -0.00000000000E+00 -0.00000000000E+00 -0.45600000000E+02  0.45600000000E+02  0.00000000000E+00 0. -1.
        -11    1    1    2    0    0  0.13434393044E+00  0.28895891354E+01  0.41360172009E+02  0.41461205992E+02  0.00000000000E+00 0.  1.
         11    1    1    2    0    0  0.41763994234E+01  0.44423599332E+00 -0.41691659817E+02  0.41902674808E+02  0.00000000000E+00 0. -1.
        -15    1    1    2    0    0 -0.29025248024E+01  0.19574003519E+00 -0.77850963167E+00  0.34966799448E+01  0.17770000000E+01 0. -1.
         15    1    1    2    0    0 -0.14082185515E+01 -0.35295651640E+01  0.11099974398E+01  0.43394392554E+01  0.17770000000E+01 0.  1.
</event>
<event>
 6    1  0.3691007E-002  0.4118410E+02  0.7546771E-02  0.1341247E+00
        -11   -1    0    0    0    0  0.00000000000E+00  0.00000000000E+00  0.45600000000E+02  0.45600000000E+02  0.00000000000E+00 0. -1.
         11   -1    0    0    0    0 -0.00000000000E+00 -0.00000000000E+00 -0.45600000000E+02  0.45600000000E+02  0.00000000000E+00 0.  1.
        -11    1    1    2    0    0 -0.13838617771E+01  0.12014289184E+01  0.42326618490E+02  0.42366273587E+02  0.00000000000E+00 0. -1.
         11    1    1    2    0    0 -0.21620775317E+01 -0.10965473478E+01 -0.40036751552E+02  0.40110079409E+02  0.00000000000E+00 0.  1.
        -15    1    1    2    0    0  0.19182588962E+01  0.21536732394E+01 -0.38010992533E+01  0.50915724633E+01  0.17770000000E+01 0. -1.
         15    1    1    2    0    0  0.16276804126E+01 -0.22585548100E+01  0.15112323157E+01  0.36320745405E+01  0.17770000000E+01 0. -1.
</event>
<event>
 6    1  0.3691007E-002  0.4625959E+02  0.7546771E-02  0.1314905E+00
        -11   -1    0    0    0    0  0.00000000000E+00  0.00000000000E+00  0.45600000000E+02  0.45600000000E+02  0.00000000000E+00 0. -1.
         11   -1    0    0    0    0 -0.00000000000E+00 -0.00000000000E+00 -0.45600000000E+02  0.45600000000E+02  0.00000000000E+00 0. -1.
        -11    1    1    2    0    0  0.69909984953E+00  0.32934223582E+00  0.31410616104E+02  0.31420121116E+02  0.00000000000E+00 0. -1.
         11    1    1    2    0    0 -0.31400799364E+00 -0.61929047590E+00 -0.44935042884E+02  0.44940407216E+02  0.00000000000E+00 0. -1.
        -15    1    1    2    0    0  0.75113059820E+00  0.22270199695E+01  0.45632383024E+01  0.54318217869E+01  0.17770000000E+01 0. -1.
         15    1    1    2    0    0 -0.11362224541E+01 -0.19370717294E+01  0.89611884779E+01  0.94076498812E+01  0.17770000000E+01 0. -1.
</event>
<event>
 6    1  0.3691007E-002  0.3393783E+02  0.7546771E-02  0.1387600E+00
        -11   -1    0    0    0    0  0.00000000000E+00  0.00000000000E+00  0.45600000000E+02  0.45600000000E+02  0.00000000000E+00 0.  1.
         11   -1    0    0    0    0 -0.00000000000E+00 -0.00000000000E+00 -0.45600000000E+02  0.45600000000E+02  0.00000000000E+00 0. -1.
        -11    1    1    2    0    0 -0.23917318668E+01  0.15183566975E+01  0.71169198703E+01  0.76600480954E+01  0.00000000000E+00 0.  1.
         11    1    1    2    0    0 -0.16191756333E-01  0.90564161047E+00 -0.32432822321E+02  0.32445468291E+02  0.00000000000E+00 0. -1.
        -15    1    1    2    0    0 -0.91005256879E+01  0.67562362658E+01 -0.84283598760E+01  0.14235914986E+02  0.17770000000E+01 0. -1.
         15    1    1    2    0    0  0.11508449311E+02 -0.91802345738E+01  0.33744262327E+02  0.36858568628E+02  0.17770000000E+01 0.  1.
</event>
<event>
 6    1  0.3691007E-002  0.4595540E+02  0.7546771E-02  0.1316372E+00
        -11   -1    0    0    0    0  0.00000000000E+00  0.00000000000E+00  0.45600000000E+02  0.45600000000E+02  0.00000000000E+00 0.  1.
         11   -1    0    0    0    0 -0.00000000000E+00 -0.00000000000E+00 -0.45600000000E+02  0.45600000000E+02  0.00000000000E+00 0. -1.
        -11    1    1    2    0    0 -0.15705419603E+01 -0.54067669371E+00  0.20457874344E+02  0.20525193203E+02  0.00000000000E+00 0.  1.
         11    1    1    2    0    0 -0.33338260648E+00 -0.14816438180E+01 -0.45219100640E+02  0.45244596086E+02  0.00000000000E+00 0. -1.
        -15    1    1    2    0    0  0.10897307807E+01 -0.85799382912E+00  0.80106908385E+01  0.83218125006E+01  0.17770000000E+01 0. -1.
         15    1    1    2    0    0  0.81419378612E+00  0.28803143408E+01  0.16750535457E+02  0.17108398210E+02  0.17770000000E+01 0. -1.
</event>
<event>
 6    1  0.3691007E-002  0.4960685E+02  0.7546771E-02  0.1299574E+00
        -11   -1    0    0    0    0  0.00000000000E+00  0.00000000000E+00  0.45600000000E+02  0.45600000000E+02  0.00000000000E+00 0.  1.
         11   -1    0    0    0    0 -0.00000000000E+00 -0.00000000000E+00 -0.45600000000E+02  0.45600000000E+02  0.00000000000E+00 0. -1.
        -11    1    1    2    0    0 -0.51540936427E+00 -0.87908172696E+00  0.41580662970E+02  0.41593148047E+02  0.00000000000E+00 0.  1.
         11    1    1    2    0    0  0.71003038266E+00  0.69775366391E+00 -0.14929850250E+02  0.14963002099E+02  0.00000000000E+00 0. -1.
        -15    1    1    2    0    0  0.24082700542E+01 -0.70184923057E+01 -0.85551056126E+00  0.76778008713E+01  0.17770000000E+01 0.  1.
         15    1    1    2    0    0 -0.26028910726E+01  0.71998203688E+01 -0.25795302158E+02  0.26966048982E+02  0.17770000000E+01 0. -1.
</event>
<event>
 6    1  0.3691007E-002  0.4173469E+02  0.7546771E-02  0.1338182E+00
        -11   -1    0    0    0    0  0.00000000000E+00  0.00000000000E+00  0.45600000000E+02  0.45600000000E+02  0.00000000000E+00 0. -1.
         11   -1    0    0    0    0 -0.00000000000E+00 -0.00000000000E+00 -0.45600000000E+02  0.45600000000E+02  0.00000000000E+00 0.  1.
        -11    1    1    2    0    0 -0.18884018323E+01 -0.19736829665E+01  0.41504015212E+02  0.41593806806E+02  0.00000000000E+00 0. -1.
         11    1    1    2    0    0  0.17097638734E+01  0.96052410304E+00 -0.41836635282E+02  0.41882573354E+02  0.00000000000E+00 0.  1.
        -15    1    1    2    0    0  0.16596148017E+00  0.34112420764E+01 -0.15985608907E+01  0.41686018805E+01  0.17770000000E+01 0.  1.
         15    1    1    2    0    0  0.12676478713E-01 -0.23980832129E+01  0.19311809605E+01  0.35550179594E+01  0.17770000000E+01 0. -1.
</event>
<event>
 6    1  0.3691007E-002  0.4621775E+02  0.7546771E-02  0.1315106E+00
        -11   -1    0    0    0    0  0.00000000000E+00  0.00000000000E+00  0.45600000000E+02  0.45600000000E+02  0.00000000000E+00 0.  1.
         11   -1    0    0    0    0 -0.00000000000E+00 -0.00000000000E+00 -0.45600000000E+02  0.45600000000E+02  0.00000000000E+00 0.  1.
        -11    1    1    2    0    0 -0.16311275401E+01  0.42652121287E+00  0.40052329549E+01  0.43456171507E+01  0.00000000000E+00 0.  1.
         11    1    1    2    0    0  0.83446630495E-01  0.60212322507E+00 -0.44978139930E+02  0.44982247468E+02  0.00000000000E+00 0.  1.
        -15    1    1    2    0    0 -0.17702951049E+01 -0.80647846731E+00  0.32397261896E+02  0.32504225258E+02  0.17770000000E+01 0.  1.
         15    1    1    2    0    0  0.33179760145E+01 -0.22216597063E+00  0.85756450791E+01  0.93679101231E+01  0.17770000000E+01 0. -1.
</event>
<event>
 6    1  0.3691007E-002  0.4605725E+02  0.7546771E-02  0.1315879E+00
        -11   -1    0    0    0    0  0.00000000000E+00  0.00000000000E+00  0.45600000000E+02  0.45600000000E+02  0.00000000000E+00 0. -1.
         11   -1    0    0    0    0 -0.00000000000E+00 -0.00000000000E+00 -0.45600000000E+02  0.45600000000E+02  0.00000000000E+00 0. -1.
        -11    1    1    2    0    0  0.10849258979E+01 -0.14896893478E+01  0.61607280004E+01  0.64304593966E+01  0.00000000000E+00 0. -1.
         11    1    1    2    0    0  0.23778599261E+01 -0.38075339961E+00 -0.45078468169E+02  0.45142745635E+02  0.00000000000E+00 0. -1.
        -15    1    1    2    0    0 -0.16782467804E+01  0.13595916666E+01  0.61232749077E+01  0.67318070643E+01  0.17770000000E+01 0.  1.
         15    1    1    2    0    0 -0.17845390436E+01  0.51085108085E+00  0.32794465261E+02  0.32894987904E+02  0.17770000000E+01 0. -1.
</event>
<event>
 6    1  0.3691007E-002  0.5047592E+02  0.7546771E-02  0.1295820E+00
        -11   -1    0    0    0    0  0.00000000000E+00  0.00000000000E+00  0.45600000000E+02  0.45600000000E+02  0.00000000000E+00 0. -1.
         11   -1    0    0    0    0 -0.00000000000E+00 -0.00000000000E+00 -0.45600000000E+02  0.45600000000E+02  0.00000000000E+00 0.  1.
        -11    1    1    2    0    0 -0.12602056033E+01 -0.72005588030E+00  0.37659401176E+02  0.37687359891E+02  0.00000000000E+00 0. -1.
         11    1    1    2    0    0  0.13427344373E+01  0.10765583393E+01 -0.40687695568E+02  0.40724077451E+02  0.00000000000E+00 0.  1.
        -15    1    1    2    0    0 -0.40794104897E+01 -0.95995040814E-01 -0.29770259170E+01  0.53545510831E+01  0.17770000000E+01 0.  1.
         15    1    1    2    0    0  0.39968816557E+01 -0.26050741818E+00  0.60053203083E+01  0.74340115745E+01  0.17770000000E+01 0. -1.
</event>
<event>
 6    1  0.3691007E-002  0.4721899E+02  0.7546771E-02  0.1310362E+00
        -11   -1    0    0    0    0  0.00000000000E+00  0.00000000000E+00  0.45600000000E+02  0.45600000000E+02  0.00000000000E+00 0. -1.
         11   -1    0    0    0    0 -0.00000000000E+00 -0.00000000000E+00 -0.45600000000E+02  0.45600000000E+02  0.00000000000E+00 0. -1.
        -11    1    1    2    0    0  0.13152104810E+01 -0.82499465434E+00  0.39402161510E+02  0.39432736736E+02  0.00000000000E+00 0. -1.
         11    1    1    2    0    0  0.15300170943E+01 -0.10486761224E+01 -0.43941881535E+02  0.43981014389E+02  0.00000000000E+00 0. -1.
        -15    1    1    2    0    0 -0.62616446323E+00 -0.32363995237E+00 -0.10429941339E+00  0.19145318283E+01  0.17770000000E+01 0. -1.
         15    1    1    2    0    0 -0.22190631120E+01  0.21973107291E+01  0.46440194378E+01  0.58717170465E+01  0.17770000000E+01 0.  1.
</event>
<event>
 6    1  0.3691007E-002  0.4274994E+02  0.7546771E-02  0.1332671E+00
        -11   -1    0    0    0    0  0.00000000000E+00  0.00000000000E+00  0.45600000000E+02  0.45600000000E+02  0.00000000000E+00 0.  1.
         11   -1    0    0    0    0 -0.00000000000E+00 -0.00000000000E+00 -0.45600000000E+02  0.45600000000E+02  0.00000000000E+00 0. -1.
        -11    1    1    2    0    0 -0.47898524511E+00 -0.44798093620E+00  0.42931801501E+02  0.42936810476E+02  0.00000000000E+00 0.  1.
         11    1    1    2    0    0  0.59701329737E+00  0.13184549637E+01 -0.42543857040E+02  0.42568468615E+02  0.00000000000E+00 0. -1.
        -15    1    1    2    0    0 -0.15676052257E+01 -0.19852152759E+01 -0.54952589053E+00  0.31397728484E+01  0.17770000000E+01 0.  1.
         15    1    1    2    0    0  0.14495771734E+01  0.11147412484E+01  0.16158143002E+00  0.25549480604E+01  0.17770000000E+01 0. -1.
</event>
<event>
 6    1  0.3691007E-002  0.4584363E+02  0.7546771E-02  0.1316914E+00
        -11   -1    0    0    0    0  0.00000000000E+00  0.00000000000E+00  0.45600000000E+02  0.45600000000E+02  0.00000000000E+00 0.  1.
         11   -1    0    0    0    0 -0.00000000000E+00 -0.00000000000E+00 -0.45600000000E+02  0.45600000000E+02  0.00000000000E+00 0. -1.
        -11    1    1    2    0    0  0.72451772925E+00 -0.11062387290E+01  0.45337090248E+02  0.45356371572E+02  0.00000000000E+00 0.  1.
         11    1    1    2    0    0  0.50953740970E+00 -0.72727824026E-01 -0.10892529839E+02  0.10904683581E+02  0.00000000000E+00 0. -1.
        -15    1    1    2    0    0 -0.25179191933E+01  0.84787293955E+00 -0.26457262628E+02  0.26649639403E+02  0.17770000000E+01 0. -1.
         15    1    1    2    0    0  0.12838640543E+01  0.33109361344E+00 -0.79872977810E+01  0.82893054434E+01  0.17770000000E+01 0. -1.
</event>
<event>
 6    1  0.3691007E-002  0.4689926E+02  0.7546771E-02  0.1311862E+00
        -11   -1    0    0    0    0  0.00000000000E+00  0.00000000000E+00  0.45600000000E+02  0.45600000000E+02  0.00000000000E+00 0. -1.
         11   -1    0    0    0    0 -0.00000000000E+00 -0.00000000000E+00 -0.45600000000E+02  0.45600000000E+02  0.00000000000E+00 0. -1.
        -11    1    1    2    0    0  0.46374427966E+01 -0.58186402550E+00  0.44053504733E+02  0.44300741763E+02  0.00000000000E+00 0. -1.
         11    1    1    2    0    0  0.55937434796E+00 -0.34643916685E-01 -0.32654607940E+02  0.32659417013E+02  0.00000000000E+00 0. -1.
        -15    1    1    2    0    0 -0.52316636419E+01 -0.24802433095E+00 -0.47083796571E+01  0.72634969901E+01  0.17770000000E+01 0. -1.
         15    1    1    2    0    0  0.34846497312E-01  0.86453227313E+00 -0.66905171359E+01  0.69763442343E+01  0.17770000000E+01 0. -1.
</event>
<event>
 6    1  0.3691007E-002  0.4799973E+02  0.7546771E-02  0.1306755E+00
        -11   -1    0    0    0    0  0.00000000000E+00  0.00000000000E+00  0.45600000000E+02  0.45600000000E+02  0.00000000000E+00 0. -1.
         11   -1    0    0    0    0 -0.00000000000E+00 -0.00000000000E+00 -0.45600000000E+02  0.45600000000E+02  0.00000000000E+00 0. -1.
        -11    1    1    2    0    0 -0.22727674722E+00  0.29408170928E+01  0.43099462538E+02  0.43200274663E+02  0.00000000000E+00 0. -1.
         11    1    1    2    0    0 -0.57264161960E+00 -0.33140203607E-01 -0.40833290525E+02  0.40837319106E+02  0.00000000000E+00 0. -1.
        -15    1    1    2    0    0  0.44258057381E-01  0.12294345052E+01 -0.26487401439E+00  0.21774653205E+01  0.17770000000E+01 0.  1.
         15    1    1    2    0    0  0.75566030944E+00 -0.41371113944E+01 -0.20012979992E+01  0.49849409099E+01  0.17770000000E+01 0.  1.
</event>
<event>
 6    1  0.3691007E-002  0.4635888E+02  0.7546771E-02  0.1314429E+00
        -11   -1    0    0    0    0  0.00000000000E+00  0.00000000000E+00  0.45600000000E+02  0.45600000000E+02  0.00000000000E+00 0.  1.
         11   -1    0    0    0    0 -0.00000000000E+00 -0.00000000000E+00 -0.45600000000E+02  0.45600000000E+02  0.00000000000E+00 0. -1.
        -11    1    1    2    0    0 -0.10062017011E+01  0.19581831321E+01  0.44787040390E+02  0.44841118518E+02  0.00000000000E+00 0.  1.
         11    1    1    2    0    0 -0.16947135617E+01  0.86359615799E+00 -0.27307881934E+02  0.27374043693E+02  0.00000000000E+00 0. -1.
        -15    1    1    2    0    0  0.23622059671E+01 -0.36809171773E+01 -0.15360021401E+02  0.16069136714E+02  0.17770000000E+01 0. -1.
         15    1    1    2    0    0  0.33870929578E+00  0.85913788722E+00 -0.21191370554E+01  0.29157010745E+01  0.17770000000E+01 0. -1.
</event>
<event>
 6    1  0.3691007E-002  0.4694509E+02  0.7546771E-02  0.1311646E+00
        -11   -1    0    0    0    0  0.00000000000E+00  0.00000000000E+00  0.45600000000E+02  0.45600000000E+02  0.00000000000E+00 0. -1.
         11   -1    0    0    0    0 -0.00000000000E+00 -0.00000000000E+00 -0.45600000000E+02  0.45600000000E+02  0.00000000000E+00 0. -1.
        -11    1    1    2    0    0  0.90436613384E+00  0.92176936172E+00  0.44236066947E+02  0.44254911093E+02  0.00000000000E+00 0. -1.
         11    1    1    2    0    0  0.15461323050E+01 -0.14322625139E+01 -0.34512200870E+02  0.34576493604E+02  0.00000000000E+00 0. -1.
        -15    1    1    2    0    0 -0.31929960301E+01  0.17205226256E+01 -0.91811312028E+01  0.10030270231E+02  0.17770000000E+01 0.  1.
         15    1    1    2    0    0  0.74249759124E+00 -0.12100294734E+01 -0.54273487443E+00  0.23383250722E+01  0.17770000000E+01 0. -1.
</event>
<event>
 6    1  0.3691007E-002  0.4587486E+02  0.7546771E-02  0.1316762E+00
        -11   -1    0    0    0    0  0.00000000000E+00  0.00000000000E+00  0.45600000000E+02  0.45600000000E+02  0.00000000000E+00 0. -1.
         11   -1    0    0    0    0 -0.00000000000E+00 -0.00000000000E+00 -0.45600000000E+02  0.45600000000E+02  0.00000000000E+00 0.  1.
        -11    1    1    2    0    0  0.42868767704E+00  0.34979924031E+00  0.19183227026E+02  0.19191204542E+02  0.00000000000E+00 0. -1.
         11    1    1    2    0    0 -0.28686054390E+01  0.16903650463E+01 -0.45202681478E+02  0.45325143617E+02  0.00000000000E+00 0.  1.
        -15    1    1    2    0    0 -0.59277813711E+00 -0.11152899339E+00  0.70797048497E+01  0.73241910403E+01  0.17770000000E+01 0.  1.
         15    1    1    2    0    0  0.30326958991E+01 -0.19286352932E+01  0.18939749602E+02  0.19359460801E+02  0.17770000000E+01 0.  1.
</event>
<event>
 6    1  0.3691007E-002  0.4651480E+02  0.7546771E-02  0.1313684E+00
        -11   -1    0    0    0    0  0.00000000000E+00  0.00000000000E+00  0.45600000000E+02  0.45600000000E+02  0.00000000000E+00 0. -1.
         11   -1    0    0    0    0 -0.00000000000E+00 -0.00000000000E+00 -0.45600000000E+02  0.45600000000E+02  0.00000000000E+00 0.  1.
        -11    1    1    2    0    0 -0.52694282366E+00  0.42184380810E+00  0.28381566754E+02  0.28389592324E+02  0.00000000000E+00 0. -1.
         11    1    1    2    0    0  0.16842283693E+01  0.29605066657E+01 -0.44555199181E+02  0.44685198880E+02  0.00000000000E+00 0.  1.
        -15    1    1    2    0    0 -0.24022275113E+01 -0.18881759292E+01  0.28411613263E+01  0.45349566743E+01  0.17770000000E+01 0.  1.
         15    1    1    2    0    0  0.12449419657E+01 -0.14941745446E+01  0.13332471101E+02  0.13590252121E+02  0.17770000000E+01 0. -1.
</event>
<event>
 6    1  0.3691007E-002  0.4681349E+02  0.7546771E-02  0.1312267E+00
        -11   -1    0    0    0    0  0.00000000000E+00  0.00000000000E+00  0.45600000000E+02  0.45600000000E+02  0.00000000000E+00 0.  1.
         11   -1    0    0    0    0 -0.00000000000E+00 -0.00000000000E+00 -0.45600000000E+02  0.45600000000E+02  0.00000000000E+00 0.  1.
        -11    1    1    2    0    0  0.69141220156E+00 -0.86771160001E-01  0.39243135816E+02  0.39249322144E+02  0.00000000000E+00 0.  1.
         11    1    1    2    0    0 -0.84670734757E+00  0.20046781269E+01 -0.44333130473E+02  0.44386508145E+02  0.00000000000E+00 0.  1.
        -15    1    1    2    0    0 -0.36755842593E+00  0.10464246544E+01  0.17503911103E+01  0.27297805393E+01  0.17770000000E+01 0.  1.
         15    1    1    2    0    0  0.52285357194E+00 -0.29643316213E+01  0.33396035465E+01  0.48343891720E+01  0.17770000000E+01 0.  1.
</event>
<event>
 6    1  0.3691007E-002  0.4860901E+02  0.7546771E-02  0.1303995E+00
        -11   -1    0    0    0    0  0.00000000000E+00  0.00000000000E+00  0.45600000000E+02  0.45600000000E+02  0.00000000000E+00 0. -1.
         11   -1    0    0    0    0 -0.00000000000E+00 -0.00000000000E+00 -0.45600000000E+02  0.45600000000E+02  0.00000000000E+00 0.  1.
        -11    1    1    2    0    0 -0.20115951224E+01 -0.31118364816E+01  0.31381594978E+02  0.31599597222E+02  0.00000000000E+00 0. -1.
         11    1    1    2    0    0  0.75516498158E+00 -0.31873970373E+00 -0.42583101427E+02  0.42590989614E+02  0.00000000000E+00 0.  1.
        -15    1    1    2    0    0  0.92967490849E+00  0.70982112680E+01  0.32335511397E+01  0.80537246423E+01  0.17770000000E+01 0.  1.
         15    1    1    2    0    0  0.32675523229E+00 -0.36676350826E+01  0.79679553096E+01  0.89556885217E+01  0.17770000000E+01 0. -1.
</event>
<event>
 6    1  0.3691007E-002  0.2705894E+02  0.7546771E-02  0.1446218E+00
        -11   -1    0    0    0    0  0.00000000000E+00  0.00000000000E+00  0.45600000000E+02  0.45600000000E+02  0.00000000000E+00 0.  1.
         11   -1    0    0    0    0 -0.00000000000E+00 -0.00000000000E+00 -0.45600000000E+02  0.45600000000E+02  0.00000000000E+00 0. -1.
        -11    1    1    2    0    0 -0.26828697515E-02 -0.20855797845E+01  0.34697489198E+02  0.34760112297E+02  0.00000000000E+00 0.  1.
         11    1    1    2    0    0  0.19790635547E+01 -0.38056949008E+00 -0.20767507411E+02  0.20865063857E+02  0.00000000000E+00 0. -1.
        -15    1    1    2    0    0 -0.22876266776E+01  0.14090225087E+02 -0.18076975891E+02  0.23102001324E+02  0.17770000000E+01 0. -1.
         15    1    1    2    0    0  0.31124599266E+00 -0.11624075812E+02  0.41469941048E+01  0.12472822522E+02  0.17770000000E+01 0.  1.
</event>
<event>
 6    1  0.3691007E-002  0.4613981E+02  0.7546771E-02  0.1315481E+00
        -11   -1    0    0    0    0  0.00000000000E+00  0.00000000000E+00  0.45600000000E+02  0.45600000000E+02  0.00000000000E+00 0.  1.
         11   -1    0    0    0    0 -0.00000000000E+00 -0.00000000000E+00 -0.45600000000E+02  0.45600000000E+02  0.00000000000E+00 0. -1.
        -11    1    1    2    0    0  0.89729423959E+00  0.30849653765E+00  0.11803529504E+02  0.11841605289E+02  0.00000000000E+00 0.  1.
         11    1    1    2    0    0 -0.51142097958E+01  0.27238849467E+00 -0.44768196142E+02  0.45060190003E+02  0.00000000000E+00 0. -1.
        -15    1    1    2    0    0  0.17899278164E+00 -0.93157917774E+00  0.14689266828E+01  0.24930609258E+01  0.17770000000E+01 0. -1.
         15    1    1    2    0    0  0.40379227745E+01  0.35069414542E+00  0.31495739954E+02  0.31805143782E+02  0.17770000000E+01 0.  1.
</event>
<event>
 6    1  0.3691007E-002  0.4625104E+02  0.7546771E-02  0.1314946E+00
        -11   -1    0    0    0    0  0.00000000000E+00  0.00000000000E+00  0.45600000000E+02  0.45600000000E+02  0.00000000000E+00 0. -1.
         11   -1    0    0    0    0 -0.00000000000E+00 -0.00000000000E+00 -0.45600000000E+02  0.45600000000E+02  0.00000000000E+00 0.  1.
        -11    1    1    2    0    0 -0.95997054351E+00 -0.94058329626E+00  0.38102024184E+02  0.38125719499E+02  0.00000000000E+00 0. -1.
         11    1    1    2    0    0 -0.67185285433E+00 -0.29662562412E+00 -0.44942955839E+02  0.44948956078E+02  0.00000000000E+00 0.  1.
        -15    1    1    2    0    0  0.82306137341E+00  0.56815015909E+00  0.19703958985E+01  0.28355623118E+01  0.17770000000E+01 0. -1.
         15    1    1    2    0    0  0.80876202443E+00  0.66905876130E+00  0.48705357562E+01  0.52897621110E+01  0.17770000000E+01 0. -1.
</event>
<event>
 6    1  0.3691007E-002  0.4692320E+02  0.7546771E-02  0.1311749E+00
        -11   -1    0    0    0    0  0.00000000000E+00  0.00000000000E+00  0.45600000000E+02  0.45600000000E+02  0.00000000000E+00 0. -1.
         11   -1    0    0    0    0 -0.00000000000E+00 -0.00000000000E+00 -0.45600000000E+02  0.45600000000E+02  0.00000000000E+00 0.  1.
        -11    1    1    2    0    0  0.10043108419E+01  0.38474622131E+00  0.40736117513E+02  0.40750312146E+02  0.00000000000E+00 0. -1.
         11    1    1    2    0    0 -0.13926268228E+01 -0.86972873450E+00 -0.44246346679E+02  0.44276800155E+02  0.00000000000E+00 0.  1.
        -15    1    1    2    0    0  0.10514590921E+01  0.18524997438E+00 -0.10885637710E+00  0.20759244895E+01  0.17770000000E+01 0. -1.
         15    1    1    2    0    0 -0.66314311121E+00  0.29973253881E+00  0.36190855422E+01  0.40969632098E+01  0.17770000000E+01 0. -1.
</event>
<event>
 6    1  0.3691007E-002  0.4717978E+02  0.7546771E-02  0.1310545E+00
        -11   -1    0    0    0    0  0.00000000000E+00  0.00000000000E+00  0.45600000000E+02  0.45600000000E+02  0.00000000000E+00 0.  1.
         11   -1    0    0    0    0 -0.00000000000E+00 -0.00000000000E+00 -0.45600000000E+02  0.45600000000E+02  0.00000000000E+00 0. -1.
        -11    1    1    2    0    0  0.12255090896E+01 -0.18333192363E+00  0.44002771819E+02  0.44020215934E+02  0.00000000000E+00 0.  1.
         11    1    1    2    0    0 -0.75993389899E+00 -0.26541834617E-01 -0.41614974512E+02  0.41621920998E+02  0.00000000000E+00 0. -1.
        -15    1    1    2    0    0 -0.17381227844E+00  0.10877832577E+01  0.39620850193E+00  0.21279551924E+01  0.17770000000E+01 0.  1.
         15    1    1    2    0    0 -0.29176291221E+00 -0.87790949942E+00 -0.27840058093E+01  0.34299078752E+01  0.17770000000E+01 0. -1.
</event>
<event>
 6    1  0.3691007E-002  0.4811999E+02  0.7546771E-02  0.1306207E+00
        -11   -1    0    0    0    0  0.00000000000E+00  0.00000000000E+00  0.45600000000E+02  0.45600000000E+02  0.00000000000E+00 0. -1.
         11   -1    0    0    0    0 -0.00000000000E+00 -0.00000000000E+00 -0.45600000000E+02  0.45600000000E+02  0.00000000000E+00 0.  1.
        -11    1    1    2    0    0  0.13831304079E+01  0.10282854210E+01  0.39183087084E+02  0.39220973140E+02  0.00000000000E+00 0. -1.
         11    1    1    2    0    0 -0.31145566313E+01  0.28020691646E+01 -0.42875807036E+02  0.43080005613E+02  0.00000000000E+00 0.  1.
        -15    1    1    2    0    0  0.26266209952E+01 -0.35625785694E+01  0.85051898697E-01  0.47703319320E+01  0.17770000000E+01 0. -1.
         15    1    1    2    0    0 -0.89519477180E+00 -0.26777601618E+00  0.36076680532E+01  0.41286893146E+01  0.17770000000E+01 0. -1.
</event>
<event>
 6    1  0.3691007E-002  0.3232502E+02  0.7546771E-02  0.1399785E+00
        -11   -1    0    0    0    0  0.00000000000E+00  0.00000000000E+00  0.45600000000E+02  0.45600000000E+02  0.00000000000E+00 0. -1.
         11   -1    0    0    0    0 -0.00000000000E+00 -0.00000000000E+00 -0.45600000000E+02  0.45600000000E+02  0.00000000000E+00 0.  1.
        -11    1    1    2    0    0  0.74288417165E+00 -0.70905702089E+00  0.25125545177E+02  0.25146523800E+02  0.00000000000E+00 0. -1.
         11    1    1    2    0    0  0.36039810105E+01 -0.16167735473E+01 -0.28693440987E+01  0.48821892000E+01  0.00000000000E+00 0.  1.
        -15    1    1    2    0    0 -0.21497537091E+01 -0.11007701995E+01 -0.41405363973E+02  0.41513793259E+02  0.17770000000E+01 0.  1.
         15    1    1    2    0    0 -0.21971114731E+01  0.34266007677E+01  0.19149162894E+02  0.19657493742E+02  0.17770000000E+01 0. -1.
</event>
<event>
 6    1  0.3691007E-002  0.4095076E+02  0.7546771E-02  0.1342562E+00
        -11   -1    0    0    0    0  0.00000000000E+00  0.00000000000E+00  0.45600000000E+02  0.45600000000E+02  0.00000000000E+00 0. -1.
         11   -1    0    0    0    0 -0.00000000000E+00 -0.00000000000E+00 -0.45600000000E+02  0.45600000000E+02  0.00000000000E+00 0. -1.
        -11    1    1    2    0    0  0.10988139270E+01 -0.68295495583E+00  0.40838471669E+02  0.40858959700E+02  0.00000000000E+00 0. -1.
         11    1    1    2    0    0 -0.10991787729E+01 -0.68275185255E+00 -0.41033782488E+02  0.41054179438E+02  0.00000000000E+00 0. -1.
        -15    1    1    2    0    0  0.26010101969E+01  0.35861720098E+01  0.18148790344E+01  0.51066034346E+01  0.17770000000E+01 0. -1.
         15    1    1    2    0    0 -0.26006453510E+01 -0.22204652015E+01 -0.16195682151E+01  0.41802574270E+01  0.17770000000E+01 0.  1.
</event>
<event>
 6    1  0.3691007E-002  0.4603232E+02  0.7546771E-02  0.1316000E+00
        -11   -1    0    0    0    0  0.00000000000E+00  0.00000000000E+00  0.45600000000E+02  0.45600000000E+02  0.00000000000E+00 0.  1.
         11   -1    0    0    0    0 -0.00000000000E+00 -0.00000000000E+00 -0.45600000000E+02  0.45600000000E+02  0.00000000000E+00 0. -1.
        -11    1    1    2    0    0 -0.65161746942E+00  0.81015415849E+00  0.26554975010E+02  0.26575320372E+02  0.00000000000E+00 0.  1.
         11    1    1    2    0    0 -0.64186681419E+00 -0.56809438047E+01 -0.44804399663E+02  0.45167680311E+02  0.00000000000E+00 0. -1.
        -15    1    1    2    0    0 -0.13388858483E-01  0.23736351465E+01  0.51708455405E+01  0.59606791286E+01  0.17770000000E+01 0. -1.
         15    1    1    2    0    0  0.13068731421E+01  0.24971544997E+01  0.13078579113E+02  0.13496320188E+02  0.17770000000E+01 0.  1.
</event>
<event>
 6    1  0.3691007E-002  0.4614893E+02  0.7546771E-02  0.1315437E+00
        -11   -1    0    0    0    0  0.00000000000E+00  0.00000000000E+00  0.45600000000E+02  0.45600000000E+02  0.00000000000E+00 0.  1.
         11   -1    0    0    0    0 -0.00000000000E+00 -0.00000000000E+00 -0.45600000000E+02  0.45600000000E+02  0.00000000000E+00 0. -1.
        -11    1    1    2    0    0 -0.69787426310E-01 -0.85326891435E+00  0.45042929995E+02  0.45051065256E+02  0.00000000000E+00 0.  1.
         11    1    1    2    0    0  0.77826582115E+00  0.75006690477E-01 -0.32191246154E+02  0.32200739939E+02  0.00000000000E+00 0. -1.
        -15    1    1    2    0    0  0.14234841632E+00  0.10845887266E+01 -0.11099158587E+02  0.11293610853E+02  0.17770000000E+01 0. -1.
         15    1    1    2    0    0 -0.85082681116E+00 -0.30632650271E+00 -0.17525252546E+01  0.26545839517E+01  0.17770000000E+01 0. -1.
</event>
<event>
 6    1  0.3691007E-002  0.4213552E+02  0.7546771E-02  0.1335985E+00
        -11   -1    0    0    0    0  0.00000000000E+00  0.00000000000E+00  0.45600000000E+02  0.45600000000E+02  0.00000000000E+00 0. -1.
         11   -1    0    0    0    0 -0.00000000000E+00 -0.00000000000E+00 -0.45600000000E+02  0.45600000000E+02  0.00000000000E+00 0. -1.
        -11    1    1    2    0    0  0.10517266904E+01 -0.99133654606E+00  0.83787313493E+01  0.85024711821E+01  0.00000000000E+00 0. -1.
         11    1    1    2    0    0 -0.79766037127E+01 -0.35210411670E+01 -0.43514167434E+02  0.44379124655E+02  0.00000000000E+00 0. -1.
        -15    1    1    2    0    0  0.84314443590E+01  0.71809267071E+01  0.21747029324E+02  0.24469286376E+02  0.17770000000E+01 0. -1.
         15    1    1    2    0    0 -0.15065673367E+01 -0.26685489940E+01  0.13388406761E+02  0.13849117786E+02  0.17770000000E+01 0.  1.
</event>
<event>
 6    1  0.3691007E-002  0.4938589E+02  0.7546771E-02  0.1300543E+00
        -11   -1    0    0    0    0  0.00000000000E+00  0.00000000000E+00  0.45600000000E+02  0.45600000000E+02  0.00000000000E+00 0.  1.
         11   -1    0    0    0    0 -0.00000000000E+00 -0.00000000000E+00 -0.45600000000E+02  0.45600000000E+02  0.00000000000E+00 0. -1.
        -11    1    1    2    0    0 -0.73476037689E+00 -0.13233198773E+00  0.41807446280E+02  0.41814111841E+02  0.00000000000E+00 0.  1.
         11    1    1    2    0    0  0.14772860953E+01  0.22722417157E+01 -0.36647210231E+02  0.36747292068E+02  0.00000000000E+00 0. -1.
        -15    1    1    2    0    0  0.11298051075E+01 -0.14851768106E+01 -0.82011378339E+01  0.85964295210E+01  0.17770000000E+01 0. -1.
         15    1    1    2    0    0 -0.18723308260E+01 -0.65473291733E+00  0.30409017846E+01  0.40421665698E+01  0.17770000000E+01 0.  1.
</event>
<event>
 6    1  0.3691007E-002  0.4658892E+02  0.7546771E-02  0.1313331E+00
        -11   -1    0    0    0    0  0.00000000000E+00  0.00000000000E+00  0.45600000000E+02  0.45600000000E+02  0.00000000000E+00 0. -1.
         11   -1    0    0    0    0 -0.00000000000E+00 -0.00000000000E+00 -0.45600000000E+02  0.45600000000E+02  0.00000000000E+00 0.  1.
        -11    1    1    2    0    0  0.15320184909E+01 -0.23949801204E+01  0.44520397569E+02  0.44611083938E+02  0.00000000000E+00 0. -1.
         11    1    1    2    0    0 -0.17293880618E+01 -0.16146276802E+01 -0.30609619831E+02  0.30700922328E+02  0.00000000000E+00 0.  1.
        -15    1    1    2    0    0  0.50374403260E+00  0.33510559145E+01 -0.13350766367E+02  0.13888269344E+02  0.17770000000E+01 0.  1.
         15    1    1    2    0    0 -0.30637446163E+00  0.65855188619E+00 -0.56001137046E+00  0.19997243892E+01  0.17770000000E+01 0. -1.
</event>
<event>
 6    1  0.3691007E-002  0.4675201E+02  0.7546771E-02  0.1312557E+00
        -11   -1    0    0    0    0  0.00000000000E+00  0.00000000000E+00  0.45600000000E+02  0.45600000000E+02  0.00000000000E+00 0.  1.
         11   -1    0    0    0    0 -0.00000000000E+00 -0.00000000000E+00 -0.45600000000E+02  0.45600000000E+02  0.00000000000E+00 0.  1.
        -11    1    1    2    0    0  0.35316590435E+00 -0.13739364228E+01  0.11556662148E+02  0.11643404461E+02  0.00000000000E+00 0.  1.
         11    1    1    2    0    0  0.59208567575E+00 -0.10489899674E+00 -0.44443921957E+02  0.44447989473E+02  0.00000000000E+00 0.  1.
        -15    1    1    2    0    0 -0.33993325994E+00 -0.23072646628E+01  0.29625601278E+02  0.29770337669E+02  0.17770000000E+01 0.  1.
         15    1    1    2    0    0 -0.60531832016E+00  0.37861000823E+01  0.32616585321E+01  0.53382683973E+01  0.17770000000E+01 0. -1.
</event>
<event>
 6    1  0.3691007E-002  0.4919131E+02  0.7546771E-02  0.1301401E+00
        -11   -1    0    0    0    0  0.00000000000E+00  0.00000000000E+00  0.45600000000E+02  0.45600000000E+02  0.00000000000E+00 0. -1.
         11   -1    0    0    0    0 -0.00000000000E+00 -0.00000000000E+00 -0.45600000000E+02  0.45600000000E+02  0.00000000000E+00 0.  1.
        -11    1    1    2    0    0  0.99057159768E+00  0.59649938182E+00  0.41992771142E+02  0.42008688052E+02  0.00000000000E+00 0. -1.
         11    1    1    2    0    0  0.10919004021E+01  0.80774579264E+00 -0.35175383256E+02  0.35201594949E+02  0.00000000000E+00 0.  1.
        -15    1    1    2    0    0 -0.29870539205E+01  0.29773938318E+00 -0.95714976400E+01  0.10187366487E+02  0.17770000000E+01 0. -1.
         15    1    1    2    0    0  0.90458192075E+00 -0.17019845576E+01  0.27541097536E+01  0.38023505126E+01  0.17770000000E+01 0.  1.
</event>
<event>
 6    1  0.3691007E-002  0.4844113E+02  0.7546771E-02  0.1304751E+00
        -11   -1    0    0    0    0  0.00000000000E+00  0.00000000000E+00  0.45600000000E+02  0.45600000000E+02  0.00000000000E+00 0. -1.
         11   -1    0    0    0    0 -0.00000000000E+00 -0.00000000000E+00 -0.45600000000E+02  0.45600000000E+02  0.00000000000E+00 0.  1.
        -11    1    1    2    0    0 -0.14564467831E+01  0.92749067732E+00  0.42723993794E+02  0.42758871851E+02  0.00000000000E+00 0. -1.
         11    1    1    2    0    0 -0.72917719253E+00  0.23672020525E+00 -0.33161745056E+02  0.33170605527E+02  0.00000000000E+00 0.  1.
        -15    1    1    2    0    0 -0.42179733913E+01 -0.14766228270E+01 -0.61085478143E+01  0.77745610746E+01  0.17770000000E+01 0. -1.
         15    1    1    2    0    0  0.64035973669E+01  0.31241194443E+00 -0.34537009238E+01  0.74959615482E+01  0.17770000000E+01 0.  1.
</event>
<event>
 6    1  0.3691007E-002  0.5511234E+02  0.7546771E-02  0.1277158E+00
        -11   -1    0    0    0    0  0.00000000000E+00  0.00000000000E+00  0.45600000000E+02  0.45600000000E+02  0.00000000000E+00 0.  1.
         11   -1    0    0    0    0 -0.00000000000E+00 -0.00000000000E+00 -0.45600000000E+02  0.45600000000E+02  0.00000000000E+00 0.  1.
        -11    1    1    2    0    0  0.16561450432E+01 -0.93284720326E+00  0.36037568441E+02  0.36087662150E+02  0.00000000000E+00 0.  1.
         11    1    1    2    0    0  0.12730349721E+01  0.42310016185E+00 -0.25506790049E+02  0.25542043192E+02  0.00000000000E+00 0.  1.
        -15    1    1    2    0    0 -0.24907938196E+01 -0.71467290829E+01  0.69315397680E+01  0.10415553898E+02  0.17770000000E+01 0.  1.
         15    1    1    2    0    0 -0.43838619566E+00  0.76564761243E+01 -0.17462318160E+02  0.19154740761E+02  0.17770000000E+01 0.  1.
</event>
<event>
 6    1  0.3691007E-002  0.4784050E+02  0.7546771E-02  0.1307484E+00
        -11   -1    0    0    0    0  0.00000000000E+00  0.00000000000E+00  0.45600000000E+02  0.45600000000E+02  0.00000000000E+00 0. -1.
         11   -1    0    0    0    0 -0.00000000000E+00 -0.00000000000E+00 -0.45600000000E+02  0.45600000000E+02  0.00000000000E+00 0. -1.
        -11    1    1    2    0    0  0.69932457862E+00  0.27295890047E+00  0.43353004038E+02  0.43359503232E+02  0.00000000000E+00 0. -1.
         11    1    1    2    0    0 -0.12496185848E+01  0.50393079589E+00 -0.37656042073E+02  0.37680140624E+02  0.00000000000E+00 0. -1.
        -15    1    1    2    0    0  0.14320689464E+01  0.93617738582E+00 -0.68621018027E+01  0.72920106772E+01  0.17770000000E+01 0. -1.
         15    1    1    2    0    0 -0.88177494029E+00 -0.17130670822E+01  0.11651398383E+01  0.28683454667E+01  0.17770000000E+01 0. -1.
</event>
<event>
 6    1  0.3691007E-002  0.4706738E+02  0.7546771E-02  0.1311071E+00
        -11   -1    0    0    0    0  0.00000000000E+00  0.00000000000E+00  0.45600000000E+02  0.45600000000E+02  0.00000000000E+00 0.  1.
         11   -1    0    0    0    0 -0.00000000000E+00 -0.00000000000E+00 -0.45600000000E+02  0.45600000000E+02  0.00000000000E+00 0.  1.
        -11    1    1    2    0    0  0.36340921856E+01  0.10434717712E+01  0.30751092343E+02  0.30982658692E+02  0.00000000000E+00 0.  1.
         11    1    1    2    0    0 -0.34414094370E+00  0.85969543302E+00 -0.44122902132E+02  0.44132618343E+02  0.00000000000E+00 0.  1.
        -15    1    1    2    0    0 -0.45800378956E+01  0.23455004560E-01  0.11767657117E+02  0.12751971623E+02  0.17770000000E+01 0. -1.
         15    1    1    2    0    0  0.12900866537E+01 -0.19266222088E+01  0.16041526730E+01  0.33327513420E+01  0.17770000000E+01 0.  1.
</event>
<event>
 6    1  0.3691007E-002  0.4244454E+02  0.7546771E-02  0.1334310E+00
        -11   -1    0    0    0    0  0.00000000000E+00  0.00000000000E+00  0.45600000000E+02  0.45600000000E+02  0.00000000000E+00 0.  1.
         11   -1    0    0    0    0 -0.00000000000E+00 -0.00000000000E+00 -0.45600000000E+02  0.45600000000E+02  0.00000000000E+00 0. -1.
        -11    1    1    2    0    0 -0.67099632803E+00 -0.76694888453E+00  0.41434886162E+02  0.41447415334E+02  0.00000000000E+00 0.  1.
         11    1    1    2    0    0  0.31352623954E+01 -0.22668229274E+01 -0.43381713289E+02  0.43553890807E+02  0.00000000000E+00 0. -1.
        -15    1    1    2    0    0 -0.11388932130E+01  0.22371742044E+01 -0.10109539198E+00  0.30773325218E+01  0.17770000000E+01 0.  1.
         15    1    1    2    0    0 -0.13253728544E+01  0.79659760753E+00  0.20479225195E+01  0.31213613372E+01  0.17770000000E+01 0. -1.
</event>
<event>
 6    1  0.3691007E-002  0.4830750E+02  0.7546771E-02  0.1305355E+00
        -11   -1    0    0    0    0  0.00000000000E+00  0.00000000000E+00  0.45600000000E+02  0.45600000000E+02  0.00000000000E+00 0.  1.
         11   -1    0    0    0    0 -0.00000000000E+00 -0.00000000000E+00 -0.45600000000E+02  0.45600000000E+02  0.00000000000E+00 0. -1.
        -11    1    1    2    0    0 -0.30114325641E+01 -0.11922163685E+01  0.37393609796E+02  0.37533613729E+02  0.00000000000E+00 0.  1.
         11    1    1    2    0    0 -0.28478935027E+00  0.77689803591E+00 -0.42884521709E+02  0.42892503748E+02  0.00000000000E+00 0. -1.
        -15    1    1    2    0    0  0.27810794530E+00 -0.11353101019E+01 -0.16356790456E+01  0.26831787114E+01  0.17770000000E+01 0.  1.
         15    1    1    2    0    0  0.30181139691E+01  0.15506284345E+01  0.71265909589E+01  0.80907038116E+01  0.17770000000E+01 0.  1.
</event>
<event>
 6    1  0.3691007E-002  0.4638104E+02  0.7546771E-02  0.1314323E+00
        -11   -1    0    0    0    0  0.00000000000E+00  0.00000000000E+00  0.45600000000E+02  0.45600000000E+02  0.00000000000E+00 0.  1.
         11   -1    0    0    0    0 -0.00000000000E+00 -0.00000000000E+00 -0.45600000000E+02  0.45600000000E+02  0.00000000000E+00 0. -1.
        -11    1    1    2    0    0 -0.85377644046E+00 -0.14321171770E+01  0.44787933054E+02  0.44818956270E+02  0.00000000000E+00 0.  1.
         11    1    1    2    0    0  0.93168227216E+00 -0.86396138340E+00 -0.37418969151E+02  0.37440535699E+02  0.00000000000E+00 0. -1.
        -15    1    1    2    0    0 -0.14083733550E+01  0.13668135305E+01 -0.35987190000E+01  0.44676842072E+01  0.17770000000E+01 0.  1.
         15    1    1    2    0    0  0.13304675233E+01  0.92926502991E+00 -0.37702449039E+01  0.44728238241E+01  0.17770000000E+01 0. -1.
</event>
<event>
 6    1  0.3691007E-002  0.4612401E+02  0.7546771E-02  0.1315557E+00
        -11   -1    0    0    0    0  0.00000000000E+00  0.00000000000E+00  0.45600000000E+02  0.45600000000E+02  0.00000000000E+00 0.  1.
         11   -1    0    0    0    0 -0.00000000000E+00 -0.00000000000E+00 -0.45600000000E+02  0.45600000000E+02  0.00000000000E+00 0. -1.
        -11    1    1    2    0    0  0.88468731297E+00 -0.17525996020E+01  0.45033215368E+02  0.45075988768E+02  0.00000000000E+00 0.  1.
         11    1    1    2    0    0 -0.28881821145E+00 -0.49303755803E+00 -0.36018249849E+02  0.36022782016E+02  0.00000000000E+00 0. -1.
        -15    1    1    2    0    0  0.40280755513E+00  0.55387340165E+00 -0.39665883120E+01  0.44000660800E+01  0.17770000000E+01 0. -1.
         15    1    1    2    0    0 -0.99867665664E+00  0.16917637584E+01 -0.50483772071E+01  0.57011631360E+01  0.17770000000E+01 0.  1.
</event>
<event>
 6    1  0.3691007E-002  0.4649992E+02  0.7546771E-02  0.1313755E+00
        -11   -1    0    0    0    0  0.00000000000E+00  0.00000000000E+00  0.45600000000E+02  0.45600000000E+02  0.00000000000E+00 0. -1.
         11   -1    0    0    0    0 -0.00000000000E+00 -0.00000000000E+00 -0.45600000000E+02  0.45600000000E+02  0.00000000000E+00 0.  1.
        -11    1    1    2    0    0 -0.14374011908E+01  0.19428323459E+00  0.44676544820E+02  0.44700084175E+02  0.00000000000E+00 0. -1.
         11    1    1    2    0    0  0.21856992377E+01  0.26228635892E+01 -0.32716903661E+02  0.32894566113E+02  0.00000000000E+00 0.  1.
        -15    1    1    2    0    0 -0.25389607878E+01 -0.82307344721E+00 -0.69260675155E+01  0.76322940202E+01  0.17770000000E+01 0.  1.
         15    1    1    2    0    0  0.17906627408E+01 -0.19940733766E+01 -0.50335736432E+01  0.59730556924E+01  0.17770000000E+01 0.  1.
</event>
<event>
 6    1  0.3691007E-002  0.4634946E+02  0.7546771E-02  0.1314474E+00
        -11   -1    0    0    0    0  0.00000000000E+00  0.00000000000E+00  0.45600000000E+02  0.45600000000E+02  0.00000000000E+00 0. -1.
         11   -1    0    0    0    0 -0.00000000000E+00 -0.00000000000E+00 -0.45600000000E+02  0.45600000000E+02  0.00000000000E+00 0.  1.
        -11    1    1    2    0    0  0.13652646517E+01 -0.13484934424E+01  0.44809466595E+02  0.44850537106E+02  0.00000000000E+00 0. -1.
         11    1    1    2    0    0  0.14752039696E+01  0.56785765357E+00 -0.30144144390E+02  0.30185561616E+02  0.00000000000E+00 0.  1.
        -15    1    1    2    0    0 -0.11425911655E+01  0.24557418136E+01 -0.43209420777E+01  0.54004121940E+01  0.17770000000E+01 0. -1.
         15    1    1    2    0    0 -0.16978774559E+01 -0.16751060248E+01 -0.10344380127E+02  0.10763489084E+02  0.17770000000E+01 0.  1.
</event>
<event>
 6    1  0.3691007E-002  0.4596326E+02  0.7546771E-02  0.1316334E+00
        -11   -1    0    0    0    0  0.00000000000E+00  0.00000000000E+00  0.45600000000E+02  0.45600000000E+02  0.00000000000E+00 0.  1.
         11   -1    0    0    0    0 -0.00000000000E+00 -0.00000000000E+00 -0.45600000000E+02  0.45600000000E+02  0.00000000000E+00 0.  1.
        -11    1    1    2    0    0 -0.12019669130E+00  0.55141767659E+00  0.76973364536E+01  0.77179982624E+01  0.00000000000E+00 0.  1.
         11    1    1    2    0    0  0.12328076629E+01 -0.10447235317E+01 -0.45207867234E+02  0.45236738630E+02  0.00000000000E+00 0.  1.
        -15    1    1    2    0    0  0.10066564951E+00  0.79263157430E+00  0.34377970445E+02  0.34433137808E+02  0.17770000000E+01 0.  1.
         15    1    1    2    0    0 -0.12132766212E+01 -0.29932571923E+00  0.31325603360E+01  0.38121253002E+01  0.17770000000E+01 0. -1.
</event>
<event>
 6    1  0.3691007E-002  0.4663516E+02  0.7546771E-02  0.1313111E+00
        -11   -1    0    0    0    0  0.00000000000E+00  0.00000000000E+00  0.45600000000E+02  0.45600000000E+02  0.00000000000E+00 0.  1.
         11   -1    0    0    0    0 -0.00000000000E+00 -0.00000000000E+00 -0.45600000000E+02  0.45600000000E+02  0.00000000000E+00 0.  1.
        -11    1    1    2    0    0  0.92800180938E+00  0.19635799828E+00  0.44554747831E+02  0.44564843746E+02  0.00000000000E+00 0.  1.
         11    1    1    2    0    0 -0.18966441707E+00 -0.29296808287E+01 -0.36385613194E+02  0.36503860753E+02  0.00000000000E+00 0.  1.
        -15    1    1    2    0    0  0.48725963826E-01  0.30964120218E+01 -0.69363072222E+01  0.78012965915E+01  0.17770000000E+01 0.  1.
         15    1    1    2    0    0 -0.78706335613E+00 -0.36308919145E+00 -0.12328274146E+01  0.23299989102E+01  0.17770000000E+01 0. -1.
</event>
<event>
 6    1  0.3691007E-002  0.4737567E+02  0.7546771E-02  0.1309632E+00
        -11   -1    0    0    0    0  0.00000000000E+00  0.00000000000E+00  0.45600000000E+02  0.45600000000E+02  0.00000000000E+00 0.  1.
         11   -1    0    0    0    0 -0.00000000000E+00 -0.00000000000E+00 -0.45600000000E+02  0.45600000000E+02  0.00000000000E+00 0.  1.
        -11    1    1    2    0    0 -0.49990379507E+00 -0.13711833466E-01  0.34773137271E+02  0.34776733134E+02  0.00000000000E+00 0.  1.
         11    1    1    2    0    0 -0.24123864256E+01  0.23480042811E+01 -0.43694837896E+02  0.43824326477E+02  0.00000000000E+00 0.  1.
        -15    1    1    2    0    0  0.83757540157E+00 -0.26553651263E+01  0.42340726133E-01  0.33033344130E+01  0.17770000000E+01 0. -1.
         15    1    1    2    0    0  0.20747148191E+01  0.32107267870E+00  0.88793598990E+01  0.92956059760E+01  0.17770000000E+01 0.  1.
</event>
<event>
 6    1  0.3691007E-002  0.4179805E+02  0.7546771E-02  0.1337833E+00
        -11   -1    0    0    0    0  0.00000000000E+00  0.00000000000E+00  0.45600000000E+02  0.45600000000E+02  0.00000000000E+00 0. -1.
         11   -1    0    0    0    0 -0.00000000000E+00 -0.00000000000E+00 -0.45600000000E+02  0.45600000000E+02  0.00000000000E+00 0. -1.
        -11    1    1    2    0    0  0.96607744409E-01 -0.84199555072E+00  0.42089953608E+02  0.42098485535E+02  0.00000000000E+00 0. -1.
         11    1    1    2    0    0 -0.16176237619E+01 -0.69434727128E+00 -0.41490382138E+02  0.41527709240E+02  0.00000000000E+00 0. -1.
        -15    1    1    2    0    0  0.33430306140E+01 -0.10003781580E+01 -0.70504230984E+00  0.39788721774E+01  0.17770000000E+01 0. -1.
         15    1    1    2    0    0 -0.18220145966E+01  0.25367209800E+01  0.10547083970E+00  0.35949330479E+01  0.17770000000E+01 0. -1.
</event>
<event>
 6    1  0.3691007E-002  0.4581328E+02  0.7546771E-02  0.1317062E+00
        -11   -1    0    0    0    0  0.00000000000E+00  0.00000000000E+00  0.45600000000E+02  0.45600000000E+02  0.00000000000E+00 0. -1.
         11   -1    0    0    0    0 -0.00000000000E+00 -0.00000000000E+00 -0.45600000000E+02  0.45600000000E+02  0.00000000000E+00 0.  1.
        -11    1    1    2    0    0 -0.58923074753E+00  0.14951800524E+00  0.79359452419E+01  0.79591943933E+01  0.00000000000E+00 0. -1.
         11    1    1    2    0    0  0.25848528097E+01 -0.15970992208E+01 -0.45284895450E+02  0.45386715522E+02  0.00000000000E+00 0.  1.
        -15    1    1    2    0    0  0.99945097569E+00  0.12307756804E+01  0.21146556324E+02  0.21280232245E+02  0.17770000000E+01 0. -1.
         15    1    1    2    0    0 -0.29950730379E+01  0.21680553515E+00  0.16202393884E+02  0.16573857840E+02  0.17770000000E+01 0. -1.
</event>
<event>
 6    1  0.3691007E-002  0.4977915E+02  0.7546771E-02  0.1298823E+00
        -11   -1    0    0    0    0  0.00000000000E+00  0.00000000000E+00  0.45600000000E+02  0.45600000000E+02  0.00000000000E+00 0.  1.
         11   -1    0    0    0    0 -0.00000000000E+00 -0.00000000000E+00 -0.45600000000E+02  0.45600000000E+02  0.00000000000E+00 0. -1.
        -11    1    1    2    0    0 -0.45437383879E+01 -0.33728954583E+01  0.41032482530E+02  0.41420847467E+02  0.00000000000E+00 0.  1.
         11    1    1    2    0    0  0.16520295649E+01  0.97722236559E+00 -0.38821287584E+02  0.38868708944E+02  0.00000000000E+00 0. -1.
        -15    1    1    2    0    0 -0.33728216000E+01  0.13630885015E+01 -0.13144202246E+01  0.42566847823E+01  0.17770000000E+01 0. -1.
         15    1    1    2    0    0  0.62645304230E+01  0.10325845912E+01 -0.89677472121E+00  0.66537588068E+01  0.17770000000E+01 0. -1.
</event>
<event>
 6    1  0.3691007E-002  0.4600369E+02  0.7546771E-02  0.1316138E+00
        -11   -1    0    0    0    0  0.00000000000E+00  0.00000000000E+00  0.45600000000E+02  0.45600000000E+02  0.00000000000E+00 0. -1.
         11   -1    0    0    0    0 -0.00000000000E+00 -0.00000000000E+00 -0.45600000000E+02  0.45600000000E+02  0.00000000000E+00 0. -1.
        -11    1    1    2    0    0 -0.29200904435E+00  0.58751018063E+00  0.45191545906E+02  0.45196308023E+02  0.00000000000E+00 0. -1.
         11    1    1    2    0    0 -0.10562528551E+01  0.98914462712E-01 -0.32645144067E+02  0.32662377214E+02  0.00000000000E+00 0. -1.
        -15    1    1    2    0    0  0.18543961941E+01 -0.42106846875E+00 -0.61483386098E+01  0.66765170981E+01  0.17770000000E+01 0.  1.
         15    1    1    2    0    0 -0.50613429457E+00 -0.26535617459E+00 -0.63980632298E+01  0.66647976650E+01  0.17770000000E+01 0. -1.
</event>
<event>
 6    1  0.3691007E-002  0.4797435E+02  0.7546771E-02  0.1306871E+00
        -11   -1    0    0    0    0  0.00000000000E+00  0.00000000000E+00  0.45600000000E+02  0.45600000000E+02  0.00000000000E+00 0.  1.
         11   -1    0    0    0    0 -0.00000000000E+00 -0.00000000000E+00 -0.45600000000E+02  0.45600000000E+02  0.00000000000E+00 0. -1.
        -11    1    1    2    0    0  0.12817001380E+00  0.69969607905E+00  0.31123213025E+02  0.31131340979E+02  0.00000000000E+00 0.  1.
         11    1    1    2    0    0  0.18124071632E+00  0.25012518144E+01 -0.43152838342E+02  0.43225647084E+02  0.00000000000E+00 0. -1.
        -15    1    1    2    0    0 -0.26789268734E+01 -0.45026220425E+01  0.13648415024E+01  0.56983134151E+01  0.17770000000E+01 0.  1.
         15    1    1    2    0    0  0.23695161433E+01  0.13016741490E+01  0.10664783814E+02  0.11144698522E+02  0.17770000000E+01 0. -1.
</event>
<event>
 6    1  0.3691007E-002  0.4620507E+02  0.7546771E-02  0.1315167E+00
        -11   -1    0    0    0    0  0.00000000000E+00  0.00000000000E+00  0.45600000000E+02  0.45600000000E+02  0.00000000000E+00 0.  1.
         11   -1    0    0    0    0 -0.00000000000E+00 -0.00000000000E+00 -0.45600000000E+02  0.45600000000E+02  0.00000000000E+00 0.  1.
        -11    1    1    2    0    0 -0.50697493415E+00 -0.17009393622E+00  0.28338421588E+02  0.28343466507E+02  0.00000000000E+00 0.  1.
         11    1    1    2    0    0 -0.17910559551E+01  0.91658544627E-01 -0.44959173978E+02  0.44994928687E+02  0.00000000000E+00 0.  1.
        -15    1    1    2    0    0  0.31526410843E+01  0.70225987076E+00  0.14233223867E+02  0.14702880853E+02  0.17770000000E+01 0. -1.
         15    1    1    2    0    0 -0.85461019502E+00 -0.62382447917E+00  0.23875285232E+01  0.31587239537E+01  0.17770000000E+01 0. -1.
</event>
<event>
 6    1  0.3691007E-002  0.4640011E+02  0.7546771E-02  0.1314231E+00
        -11   -1    0    0    0    0  0.00000000000E+00  0.00000000000E+00  0.45600000000E+02  0.45600000000E+02  0.00000000000E+00 0. -1.
         11   -1    0    0    0    0 -0.00000000000E+00 -0.00000000000E+00 -0.45600000000E+02  0.45600000000E+02  0.00000000000E+00 0. -1.
        -11    1    1    2    0    0 -0.40885577627E+00  0.92636346540E+00  0.44788443496E+02  0.44799888204E+02  0.00000000000E+00 0. -1.
         11    1    1    2    0    0  0.43803650985E+00 -0.24969967362E+01 -0.38499660162E+02  0.38583036445E+02  0.00000000000E+00 0. -1.
        -15    1    1    2    0    0 -0.57446907826E+00 -0.24029493360E+00 -0.16587500436E+01  0.25093698579E+01  0.17770000000E+01 0. -1.
         15    1    1    2    0    0  0.54528834468E+00  0.18109282044E+01 -0.46300332900E+01  0.53077054936E+01  0.17770000000E+01 0.  1.
</event>
<event>
 6    1  0.3691007E-002  0.4703570E+02  0.7546771E-02  0.1311220E+00
        -11   -1    0    0    0    0  0.00000000000E+00  0.00000000000E+00  0.45600000000E+02  0.45600000000E+02  0.00000000000E+00 0. -1.
         11   -1    0    0    0    0 -0.00000000000E+00 -0.00000000000E+00 -0.45600000000E+02  0.45600000000E+02  0.00000000000E+00 0. -1.
        -11    1    1    2    0    0 -0.92991609991E-01 -0.19514275279E+01  0.44121066458E+02  0.44164298050E+02  0.00000000000E+00 0. -1.
         11    1    1    2    0    0 -0.67308935711E+00  0.54325508306E+00 -0.41701668879E+02  0.41710638484E+02  0.00000000000E+00 0. -1.
        -15    1    1    2    0    0 -0.92489984028E+00  0.10534860480E+01 -0.12283668564E+01  0.25752449790E+01  0.17770000000E+01 0. -1.
         15    1    1    2    0    0  0.16909808074E+01  0.35468639690E+00 -0.11910307226E+01  0.27498184873E+01  0.17770000000E+01 0.  1.
</event>
<event>
 6    1  0.3691007E-002  0.4750448E+02  0.7546771E-02  0.1309034E+00
        -11   -1    0    0    0    0  0.00000000000E+00  0.00000000000E+00  0.45600000000E+02  0.45600000000E+02  0.00000000000E+00 0.  1.
         11   -1    0    0    0    0 -0.00000000000E+00 -0.00000000000E+00 -0.45600000000E+02  0.45600000000E+02  0.00000000000E+00 0. -1.
        -11    1    1    2    0    0 -0.15571875421E+00 -0.65334699230E+00  0.40827662286E+02  0.40833186483E+02  0.00000000000E+00 0.  1.
         11    1    1    2    0    0 -0.12960699927E+01  0.29909381648E+01 -0.43573765207E+02  0.43695520627E+02  0.00000000000E+00 0. -1.
        -15    1    1    2    0    0  0.57894567927E+00  0.42626066926E+00 -0.48896575558E+00  0.19783055294E+01  0.17770000000E+01 0. -1.
         15    1    1    2    0    0  0.87284306759E+00 -0.27638518417E+01  0.32350686765E+01  0.46929873604E+01  0.17770000000E+01 0.  1.
</event>
<event>
 6    1  0.3691007E-002  0.4870966E+02  0.7546771E-02  0.1303544E+00
        -11   -1    0    0    0    0  0.00000000000E+00  0.00000000000E+00  0.45600000000E+02  0.45600000000E+02  0.00000000000E+00 0.  1.
         11   -1    0    0    0    0 -0.00000000000E+00 -0.00000000000E+00 -0.45600000000E+02  0.45600000000E+02  0.00000000000E+00 0.  1.
        -11    1    1    2    0    0 -0.12102056663E+01 -0.54142179733E+01  0.42126602956E+02  0.42490340439E+02  0.00000000000E+00 0.  1.
         11    1    1    2    0    0 -0.35714637441E+00 -0.89756079172E+00 -0.26239489471E+02  0.26257265216E+02  0.00000000000E+00 0.  1.
        -15    1    1    2    0    0  0.10041246599E+01  0.92920975315E+01 -0.44795477330E+01  0.10515484761E+02  0.17770000000E+01 0.  1.
         15    1    1    2    0    0  0.56322738087E+00 -0.29803187665E+01 -0.11407565752E+02  0.11936909584E+02  0.17770000000E+01 0.  1.
</event>
<event>
 6    1  0.3691007E-002  0.4739695E+02  0.7546771E-02  0.1309533E+00
        -11   -1    0    0    0    0  0.00000000000E+00  0.00000000000E+00  0.45600000000E+02  0.45600000000E+02  0.00000000000E+00 0. -1.
         11   -1    0    0    0    0 -0.00000000000E+00 -0.00000000000E+00 -0.45600000000E+02  0.45600000000E+02  0.00000000000E+00 0.  1.
        -11    1    1    2    0    0 -0.82834963066E+00  0.10142156847E+01  0.43783473014E+02  0.43803051329E+02  0.00000000000E+00 0. -1.
         11    1    1    2    0    0  0.41835793760E+00 -0.86559141744E+00 -0.43090473956E+02  0.43101197404E+02  0.00000000000E+00 0.  1.
        -15    1    1    2    0    0  0.25838588447E+00  0.68638282856E+00 -0.11949697695E+01  0.22635296337E+01  0.17770000000E+01 0.  1.
         15    1    1    2    0    0  0.15160580859E+00 -0.83500709583E+00  0.50197071212E+00  0.20322216334E+01  0.17770000000E+01 0.  1.
</event>
<event>
 6    1  0.3691007E-002  0.3908914E+02  0.7546771E-02  0.1353436E+00
        -11   -1    0    0    0    0  0.00000000000E+00  0.00000000000E+00  0.45600000000E+02  0.45600000000E+02  0.00000000000E+00 0.  1.
         11   -1    0    0    0    0 -0.00000000000E+00 -0.00000000000E+00 -0.45600000000E+02  0.45600000000E+02  0.00000000000E+00 0. -1.
        -11    1    1    2    0    0 -0.35857788831E+01  0.56868721983E+01  0.39734467674E+02  0.40299209011E+02  0.00000000000E+00 0.  1.
         11    1    1    2    0    0  0.18101152104E+01 -0.36382940593E+00 -0.38053459858E+02  0.38098224316E+02  0.00000000000E+00 0. -1.
        -15    1    1    2    0    0 -0.80474099902E+00 -0.17383362007E+00 -0.53835499286E+01  0.57287140823E+01  0.17770000000E+01 0. -1.
         15    1    1    2    0    0  0.25804046717E+01 -0.51492091723E+01  0.37025421124E+01  0.70738525899E+01  0.17770000000E+01 0. -1.
</event>
<event>
 6    1  0.3691007E-002  0.4649154E+02  0.7546771E-02  0.1313795E+00
        -11   -1    0    0    0    0  0.00000000000E+00  0.00000000000E+00  0.45600000000E+02  0.45600000000E+02  0.00000000000E+00 0. -1.
         11   -1    0    0    0    0 -0.00000000000E+00 -0.00000000000E+00 -0.45600000000E+02  0.45600000000E+02  0.00000000000E+00 0. -1.
        -11    1    1    2    0    0 -0.75273532324E+00  0.53158266443E+00  0.34875404134E+02  0.34887576644E+02  0.00000000000E+00 0. -1.
         11    1    1    2    0    0 -0.32466462333E+01 -0.81045372816E+00 -0.44583052536E+02  0.44708456923E+02  0.00000000000E+00 0. -1.
        -15    1    1    2    0    0  0.54675383528E+00  0.10256028956E+01  0.51470467032E+01  0.55678200241E+01  0.17770000000E+01 0. -1.
         15    1    1    2    0    0  0.34526277212E+01 -0.74673183190E+00  0.45606016994E+01  0.60361464090E+01  0.17770000000E+01 0.  1.
</event>
<event>
 6    1  0.3691007E-002  0.5094876E+02  0.7546771E-02  0.1293813E+00
        -11   -1    0    0    0    0  0.00000000000E+00  0.00000000000E+00  0.45600000000E+02  0.45600000000E+02  0.00000000000E+00 0. -1.
         11   -1    0    0    0    0 -0.00000000000E+00 -0.00000000000E+00 -0.45600000000E+02  0.45600000000E+02  0.00000000000E+00 0.  1.
        -11    1    1    2    0    0  0.22111056833E+01 -0.24525905907E+00  0.40189715521E+02  0.40251240652E+02  0.00000000000E+00 0. -1.
         11    1    1    2    0    0 -0.13793257124E+01 -0.56039569181E+00 -0.31174347072E+02  0.31209878214E+02  0.00000000000E+00 0.  1.
        -15    1    1    2    0    0 -0.90524170394E+00  0.39226315492E+01  0.41769150811E+01  0.60671945253E+01  0.17770000000E+01 0.  1.
         15    1    1    2    0    0  0.73461732963E-01 -0.31169767983E+01 -0.13192283530E+02  0.13671686609E+02  0.17770000000E+01 0.  1.
</event>
<event>
 6    1  0.3691007E-002  0.4641043E+02  0.7546771E-02  0.1314182E+00
        -11   -1    0    0    0    0  0.00000000000E+00  0.00000000000E+00  0.45600000000E+02  0.45600000000E+02  0.00000000000E+00 0.  1.
         11   -1    0    0    0    0 -0.00000000000E+00 -0.00000000000E+00 -0.45600000000E+02  0.45600000000E+02  0.00000000000E+00 0. -1.
        -11    1    1    2    0    0  0.11354842233E+01 -0.45832918593E+00  0.26957208758E+02  0.26985004985E+02  0.00000000000E+00 0.  1.
         11    1    1    2    0    0 -0.17875097767E+01  0.33061320157E+01 -0.44631596827E+02  0.44789565028E+02  0.00000000000E+00 0. -1.
        -15    1    1    2    0    0 -0.14866984281E+01 -0.10530427340E+01  0.14873797421E+02  0.15089955266E+02  0.17770000000E+01 0.  1.
         15    1    1    2    0    0  0.21387239815E+01 -0.17947600958E+01  0.28005906483E+01  0.43354747203E+01  0.17770000000E+01 0.  1.
</event>
<event>
 6    1  0.3691007E-002  0.4731651E+02  0.7546771E-02  0.1309907E+00
        -11   -1    0    0    0    0  0.00000000000E+00  0.00000000000E+00  0.45600000000E+02  0.45600000000E+02  0.00000000000E+00 0.  1.
         11   -1    0    0    0    0 -0.00000000000E+00 -0.00000000000E+00 -0.45600000000E+02  0.45600000000E+02  0.00000000000E+00 0. -1.
        -11    1    1    2    0    0  0.44653652770E+00  0.42426498470E+00  0.43879171010E+02  0.43883493983E+02  0.00000000000E+00 0.  1.
         11    1    1    2    0    0 -0.23864633587E+01  0.30406140086E+01 -0.20282405591E+02  0.20647433678E+02  0.00000000000E+00 0. -1.
        -15    1    1    2    0    0 -0.32091870915E+01 -0.46338092629E+01 -0.17196488064E+02  0.18183729013E+02  0.17770000000E+01 0.  1.
         15    1    1    2    0    0  0.51491139225E+01  0.11689302696E+01 -0.64002773546E+01  0.84853433270E+01  0.17770000000E+01 0. -1.
</event>
<event>
 6    1  0.3691007E-002  0.4892139E+02  0.7546771E-02  0.1302598E+00
        -11   -1    0    0    0    0  0.00000000000E+00  0.00000000000E+00  0.45600000000E+02  0.45600000000E+02  0.00000000000E+00 0. -1.
         11   -1    0    0    0    0 -0.00000000000E+00 -0.00000000000E+00 -0.45600000000E+02  0.45600000000E+02  0.00000000000E+00 0. -1.
        -11    1    1    2    0    0  0.54680286789E+00  0.44632712367E+00  0.30408198586E+02  0.30416389373E+02  0.00000000000E+00 0. -1.
         11    1    1    2    0    0 -0.15201878817E+01 -0.11548059871E+01 -0.42235482082E+02  0.42278605639E+02  0.00000000000E+00 0. -1.
        -15    1    1    2    0    0 -0.12944915531E+01  0.40133672637E+00 -0.28062282141E+01  0.35873981293E+01  0.17770000000E+01 0. -1.
         15    1    1    2    0    0  0.22678765669E+01  0.30714213702E+00  0.14633511710E+02  0.14917606859E+02  0.17770000000E+01 0. -1.
</event>
<event>
 6    1  0.3691007E-002  0.4590625E+02  0.7546771E-02  0.1316610E+00
        -11   -1    0    0    0    0  0.00000000000E+00  0.00000000000E+00  0.45600000000E+02  0.45600000000E+02  0.00000000000E+00 0. -1.
         11   -1    0    0    0    0 -0.00000000000E+00 -0.00000000000E+00 -0.45600000000E+02  0.45600000000E+02  0.00000000000E+00 0. -1.
        -11    1    1    2    0    0 -0.21414200085E+01 -0.62689759466E+00  0.45238758804E+02  0.45293752090E+02  0.00000000000E+00 0. -1.
         11    1    1    2    0    0 -0.42801610733E+00 -0.41779578547E+00 -0.66333959413E+01  0.66603072618E+01  0.00000000000E+00 0. -1.
        -15    1    1    2    0    0 -0.10333210806E+01  0.83494798597E+00 -0.23820756230E+02  0.23923859366E+02  0.17770000000E+01 0. -1.
         15    1    1    2    0    0  0.36027571964E+01  0.20974539416E+00 -0.14784606632E+02  0.15322081282E+02  0.17770000000E+01 0.  1.
</event>
<event>
 6    1  0.3691007E-002  0.4146411E+02  0.7546771E-02  0.1339681E+00
        -11   -1    0    0    0    0  0.00000000000E+00  0.00000000000E+00  0.45600000000E+02  0.45600000000E+02  0.00000000000E+00 0.  1.
         11   -1    0    0    0    0 -0.00000000000E+00 -0.00000000000E+00 -0.45600000000E+02  0.45600000000E+02  0.00000000000E+00 0. -1.
        -11    1    1    2    0    0 -0.22745825802E+01  0.11522933229E+01  0.41383945976E+02  0.41462422630E+02  0.00000000000E+00 0.  1.
         11    1    1    2    0    0  0.13850206226E+01 -0.79390738897E+00 -0.41440628355E+02  0.41471366622E+02  0.00000000000E+00 0. -1.
        -15    1    1    2    0    0 -0.53840978633E+00  0.19001108342E+00  0.35780753397E+01  0.40356339584E+01  0.17770000000E+01 0.  1.
         15    1    1    2    0    0  0.14279717439E+01 -0.54839701730E+00 -0.35213929609E+01  0.42305767899E+01  0.17770000000E+01 0.  1.
</event>
<event>
 6    1  0.3691007E-002  0.4892076E+02  0.7546771E-02  0.1302601E+00
        -11   -1    0    0    0    0  0.00000000000E+00  0.00000000000E+00  0.45600000000E+02  0.45600000000E+02  0.00000000000E+00 0. -1.
         11   -1    0    0    0    0 -0.00000000000E+00 -0.00000000000E+00 -0.45600000000E+02  0.45600000000E+02  0.00000000000E+00 0.  1.
        -11    1    1    2    0    0  0.62105325755E+00  0.78940704384E+00  0.38794224964E+02  0.38807225631E+02  0.00000000000E+00 0. -1.
         11    1    1    2    0    0  0.66290213549E+00  0.76813196162E+00 -0.42267066824E+02  0.42279243180E+02  0.00000000000E+00 0.  1.
        -15    1    1    2    0    0 -0.11730872871E-01  0.86789020196E+00 -0.25713705746E+01  0.32439245749E+01  0.17770000000E+01 0. -1.
         15    1    1    2    0    0 -0.12722245202E+01 -0.24254292074E+01  0.60442124351E+01  0.68696066139E+01  0.17770000000E+01 0.  1.
</event>
<event>
 6    1  0.3691007E-002  0.4745802E+02  0.7546771E-02  0.1309249E+00
        -11   -1    0    0    0    0  0.00000000000E+00  0.00000000000E+00  0.45600000000E+02  0.45600000000E+02  0.00000000000E+00 0.  1.
         11   -1    0    0    0    0 -0.00000000000E+00 -0.00000000000E+00 -0.45600000000E+02  0.45600000000E+02  0.00000000000E+00 0. -1.
        -11    1    1    2    0    0 -0.65839598570E+00  0.86625658490E+00  0.25950270981E+02  0.25973071627E+02  0.00000000000E+00 0.  1.
         11    1    1    2    0    0 -0.56050241145E+00  0.76078100102E+00 -0.43731776541E+02  0.43741984752E+02  0.00000000000E+00 0. -1.
        -15    1    1    2    0    0  0.32087954039E+01 -0.18424705690E+01  0.18303387125E+02  0.18758005624E+02  0.17770000000E+01 0. -1.
         15    1    1    2    0    0 -0.19898970068E+01  0.21543298304E+00 -0.52188156564E+00  0.27269379964E+01  0.17770000000E+01 0. -1.
</event>
<event>
 6    1  0.3691007E-002  0.4704226E+02  0.7546771E-02  0.1311189E+00
        -11   -1    0    0    0    0  0.00000000000E+00  0.00000000000E+00  0.45600000000E+02  0.45600000000E+02  0.00000000000E+00 0.  1.
         11   -1    0    0    0    0 -0.00000000000E+00 -0.00000000000E+00 -0.45600000000E+02  0.45600000000E+02  0.00000000000E+00 0. -1.
        -11    1    1    2    0    0  0.62729744814E+00  0.25292834643E+01  0.44080776683E+02  0.44157736015E+02  0.00000000000E+00 0.  1.
         11    1    1    2    0    0 -0.75230059759E+00 -0.62021891717E-01 -0.33771745658E+02  0.33780180693E+02  0.00000000000E+00 0. -1.
        -15    1    1    2    0    0 -0.28873060555E+01 -0.11987635043E+01 -0.19005958206E+01  0.40673779847E+01  0.17770000000E+01 0. -1.
         15    1    1    2    0    0  0.30123092050E+01 -0.12684980683E+01 -0.84084352047E+01  0.91947053073E+01  0.17770000000E+01 0.  1.
</event>
<event>
 6    1  0.3691007E-002  0.4980949E+02  0.7546771E-02  0.1298691E+00
        -11   -1    0    0    0    0  0.00000000000E+00  0.00000000000E+00  0.45600000000E+02  0.45600000000E+02  0.00000000000E+00 0. -1.
         11   -1    0    0    0    0 -0.00000000000E+00 -0.00000000000E+00 -0.45600000000E+02  0.45600000000E+02  0.00000000000E+00 0.  1.
        -11    1    1    2    0    0 -0.19374090037E+01  0.17924867648E+00  0.25092036353E+02  0.25167359259E+02  0.00000000000E+00 0. -1.
         11    1    1    2    0    0  0.33295883276E+00 -0.55972623017E+00 -0.41385387505E+02  0.41390511642E+02  0.00000000000E+00 0.  1.
        -15    1    1    2    0    0 -0.10892857641E+01  0.13471288079E+01 -0.36513655101E+01  0.44149177330E+01  0.17770000000E+01 0. -1.
         15    1    1    2    0    0  0.26937359351E+01 -0.96665125423E+00  0.19944716662E+02  0.20227211367E+02  0.17770000000E+01 0. -1.
</event>
<event>
 6    1  0.3691007E-002  0.4627510E+02  0.7546771E-02  0.1314830E+00
        -11   -1    0    0    0    0  0.00000000000E+00  0.00000000000E+00  0.45600000000E+02  0.45600000000E+02  0.00000000000E+00 0. -1.
         11   -1    0    0    0    0 -0.00000000000E+00 -0.00000000000E+00 -0.45600000000E+02  0.45600000000E+02  0.00000000000E+00 0.  1.
        -11    1    1    2    0    0 -0.96966848815E+00 -0.15786683140E+00  0.44914159129E+02  0.44924902550E+02  0.00000000000E+00 0. -1.
         11    1    1    2    0    0  0.15875596422E+00 -0.22114635455E+01 -0.27461758653E+02  0.27551115455E+02  0.00000000000E+00 0.  1.
        -15    1    1    2    0    0 -0.19735897268E+01  0.11619103189E+01 -0.49498432760E+01  0.57361807377E+01  0.17770000000E+01 0. -1.
         15    1    1    2    0    0  0.27845022507E+01  0.12074200581E+01 -0.12502557199E+02  0.12987801257E+02  0.17770000000E+01 0. -1.
</event>
<event>
 6    1  0.3691007E-002  0.4607391E+02  0.7546771E-02  0.1315799E+00
        -11   -1    0    0    0    0  0.00000000000E+00  0.00000000000E+00  0.45600000000E+02  0.45600000000E+02  0.00000000000E+00 0. -1.
         11   -1    0    0    0    0 -0.00000000000E+00 -0.00000000000E+00 -0.45600000000E+02  0.45600000000E+02  0.00000000000E+00 0.  1.
        -11    1    1    2    0    0  0.64524210038E+00 -0.82365976697E+00  0.45113963329E+02  0.45126094890E+02  0.00000000000E+00 0. -1.
         11    1    1    2    0    0  0.36875454270E+00  0.64066171385E+00 -0.36114462435E+02  0.36122026858E+02  0.00000000000E+00 0.  1.
        -15    1    1    2    0    0 -0.85461110169E+00 -0.79225552287E+00 -0.35758693000E+01  0.41596393112E+01  0.17770000000E+01 0.  1.
         15    1    1    2    0    0 -0.15938554139E+00  0.97525357598E+00 -0.54236315938E+01  0.57922389413E+01  0.17770000000E+01 0. -1.
</event>
<event>
 6    1  0.3691007E-002  0.5201903E+02  0.7546771E-02  0.1289362E+00
        -11   -1    0    0    0    0  0.00000000000E+00  0.00000000000E+00  0.45600000000E+02  0.45600000000E+02  0.00000000000E+00 0.  1.
         11   -1    0    0    0    0 -0.00000000000E+00 -0.00000000000E+00 -0.45600000000E+02  0.45600000000E+02  0.00000000000E+00 0. -1.
        -11    1    1    2    0    0  0.15200907475E+00  0.66717639030E+00  0.36872769615E+02  0.36879118349E+02  0.00000000000E+00 0.  1.
         11    1    1    2    0    0 -0.49706060596E+00 -0.42567640626E+00 -0.39175500822E+02  0.39180966480E+02  0.00000000000E+00 0. -1.
        -15    1    1    2    0    0  0.58441107293E+01  0.43707925013E+01  0.48988320988E+00  0.75269629908E+01  0.17770000000E+01 0. -1.
         15    1    1    2    0    0 -0.54990591981E+01 -0.46122924854E+01  0.18128479975E+01  0.76129521801E+01  0.17770000000E+01 0.  1.
</event>
<event>
 6    1  0.3691007E-002  0.3753746E+02  0.7546771E-02  0.1363051E+00
        -11   -1    0    0    0    0  0.00000000000E+00  0.00000000000E+00  0.45600000000E+02  0.45600000000E+02  0.00000000000E+00 0.  1.
         11   -1    0    0    0    0 -0.00000000000E+00 -0.00000000000E+00 -0.45600000000E+02  0.45600000000E+02  0.00000000000E+00 0.  1.
        -11    1    1    2    0    0 -0.25307251713E+01 -0.26505893850E+01  0.38067043196E+02  0.38243038212E+02  0.00000000000E+00 0.  1.
         11    1    1    2    0    0  0.99368258949E+00  0.51322978288E+01 -0.36532169560E+02  0.36904299192E+02  0.00000000000E+00 0.  1.
        -15    1    1    2    0    0  0.55572500429E+01 -0.29956951609E+00  0.51308684879E+01  0.77753656103E+01  0.17770000000E+01 0. -1.
         15    1    1    2    0    0 -0.40202074611E+01 -0.21821389277E+01 -0.66657421240E+01  0.82772969859E+01  0.17770000000E+01 0.  1.
</event>
<event>
 6    1  0.3691007E-002  0.4903823E+02  0.7546771E-02  0.1302079E+00
        -11   -1    0    0    0    0  0.00000000000E+00  0.00000000000E+00  0.45600000000E+02  0.45600000000E+02  0.00000000000E+00 0. -1.
         11   -1    0    0    0    0 -0.00000000000E+00 -0.00000000000E+00 -0.45600000000E+02  0.45600000000E+02  0.00000000000E+00 0.  1.
        -11    1    1    2    0    0 -0.30806580128E+01 -0.11097275112E+01  0.42034427815E+02  0.42161772622E+02  0.00000000000E+00 0. -1.
         11    1    1    2    0    0 -0.34050555934E+00  0.67845315186E+00 -0.37383822780E+02  0.37391529099E+02  0.00000000000E+00 0.  1.
        -15    1    1    2    0    0  0.43674911534E+01  0.13597563434E+01 -0.69139123520E+01  0.84784331866E+01  0.17770000000E+01 0.  1.
         15    1    1    2    0    0 -0.94632758123E+00 -0.92848198408E+00  0.22633073169E+01  0.31682650926E+01  0.17770000000E+01 0.  1.
</event>
<event>
 6    1  0.3691007E-002  0.4679938E+02  0.7546771E-02  0.1312333E+00
        -11   -1    0    0    0    0  0.00000000000E+00  0.00000000000E+00  0.45600000000E+02  0.45600000000E+02  0.00000000000E+00 0.  1.
         11   -1    0    0    0    0 -0.00000000000E+00 -0.00000000000E+00 -0.45600000000E+02  0.45600000000E+02  0.00000000000E+00 0.  1.
        -11    1    1    2    0    0 -0.39218046539E+00 -0.48789937569E+00  0.44396207156E+02  0.44400620054E+02  0.00000000000E+00 0.  1.
         11    1    1    2    0    0  0.12806131694E+01 -0.94542552086E-01 -0.33804869672E+02  0.33829249503E+02  0.00000000000E+00 0.  1.
        -15    1    1    2    0    0  0.18354791215E+01  0.23669350847E+01 -0.69404862174E+01  0.77652716137E+01  0.17770000000E+01 0.  1.
         15    1    1    2    0    0 -0.27239118255E+01 -0.17844931569E+01 -0.36508512663E+01  0.52048588289E+01  0.17770000000E+01 0. -1.
</event>
<event>
 6    1  0.3691007E-002  0.4609622E+02  0.7546771E-02  0.1315691E+00
        -11   -1    0    0    0    0  0.00000000000E+00  0.00000000000E+00  0.45600000000E+02  0.45600000000E+02  0.00000000000E+00 0. -1.
         11   -1    0    0    0    0 -0.00000000000E+00 -0.00000000000E+00 -0.45600000000E+02  0.45600000000E+02  0.00000000000E+00 0.  1.
        -11    1    1    2    0    0  0.51691594243E+00 -0.15979781710E+00  0.29464083589E+02  0.29469050870E+02  0.00000000000E+00 0. -1.
         11    1    1    2    0    0  0.16701488417E+01  0.10930521946E+01 -0.45059596427E+02  0.45103784658E+02  0.00000000000E+00 0.  1.
        -15    1    1    2    0    0 -0.59708717473E+00 -0.81489073070E+00  0.12749806312E+02  0.12912623668E+02  0.17770000000E+01 0.  1.
         15    1    1    2    0    0 -0.15899776094E+01 -0.11836364677E+00  0.28457065259E+01  0.37145408038E+01  0.17770000000E+01 0.  1.
</event>
<event>
 6    1  0.3691007E-002  0.4539115E+02  0.7546771E-02  0.1319128E+00
        -11   -1    0    0    0    0  0.00000000000E+00  0.00000000000E+00  0.45600000000E+02  0.45600000000E+02  0.00000000000E+00 0. -1.
         11   -1    0    0    0    0 -0.00000000000E+00 -0.00000000000E+00 -0.45600000000E+02  0.45600000000E+02  0.00000000000E+00 0.  1.
        -11    1    1    2    0    0  0.56139365123E+00 -0.16594022778E+01  0.27272567736E+01  0.32414052910E+01  0.00000000000E+00 0. -1.
         11    1    1    2    0    0 -0.34455453087E+01  0.14110083564E+01 -0.43724946063E+02  0.43883181691E+02  0.00000000000E+00 0.  1.
        -15    1    1    2    0    0 -0.41964278598E+00 -0.70771374676E+01  0.25514637878E+02  0.26540844935E+02  0.17770000000E+01 0.  1.
         15    1    1    2    0    0  0.33037944435E+01  0.73255313890E+01  0.15483051412E+02  0.17534568083E+02  0.17770000000E+01 0. -1.
</event>
<event>
 6    1  0.3691007E-002  0.4636916E+02  0.7546771E-02  0.1314379E+00
        -11   -1    0    0    0    0  0.00000000000E+00  0.00000000000E+00  0.45600000000E+02  0.45600000000E+02  0.00000000000E+00 0.  1.
         11   -1    0    0    0    0 -0.00000000000E+00 -0.00000000000E+00 -0.45600000000E+02  0.45600000000E+02  0.00000000000E+00 0. -1.
        -11    1    1    2    0    0  0.26448222982E+00 -0.26822548203E+01  0.44749745024E+02  0.44830838956E+02  0.00000000000E+00 0.  1.
         11    1    1    2    0    0 -0.71043787990E+00 -0.18167616973E+00 -0.87250929085E+01  0.87558537262E+01  0.00000000000E+00 0. -1.
        -15    1    1    2    0    0 -0.23199777876E+00  0.34051317352E+01 -0.40828689068E+01  0.56103736607E+01  0.17770000000E+01 0. -1.
         15    1    1    2    0    0  0.67795342884E+00 -0.54120074516E+00 -0.31941783209E+02  0.32002933657E+02  0.17770000000E+01 0. -1.
</event>
<event>
 6    1  0.3691007E-002  0.4736369E+02  0.7546771E-02  0.1309687E+00
        -11   -1    0    0    0    0  0.00000000000E+00  0.00000000000E+00  0.45600000000E+02  0.45600000000E+02  0.00000000000E+00 0.  1.
         11   -1    0    0    0    0 -0.00000000000E+00 -0.00000000000E+00 -0.45600000000E+02  0.45600000000E+02  0.00000000000E+00 0. -1.
        -11    1    1    2    0    0  0.22866558746E+00 -0.94979959392E+00  0.39468566563E+02  0.39480655437E+02  0.00000000000E+00 0.  1.
         11    1    1    2    0    0  0.25190656134E+01  0.15283171439E+01 -0.43737174722E+02  0.43836307982E+02  0.00000000000E+00 0. -1.
        -15    1    1    2    0    0 -0.24119094352E+01  0.18966231672E+01  0.20142944263E+01  0.40779403622E+01  0.17770000000E+01 0.  1.
         15    1    1    2    0    0 -0.33582176561E+00 -0.24751407172E+01  0.22543137325E+01  0.38050962186E+01  0.17770000000E+01 0. -1.
</event>
<event>
 6    1  0.3691007E-002  0.4722282E+02  0.7546771E-02  0.1310344E+00
        -11   -1    0    0    0    0  0.00000000000E+00  0.00000000000E+00  0.45600000000E+02  0.45600000000E+02  0.00000000000E+00 0. -1.
         11   -1    0    0    0    0 -0.00000000000E+00 -0.00000000000E+00 -0.45600000000E+02  0.45600000000E+02  0.00000000000E+00 0. -1.
        -11    1    1    2    0    0 -0.13287251832E+01  0.73944685014E+00  0.36836372884E+02  0.36867745517E+02  0.00000000000E+00 0. -1.
         11    1    1    2    0    0  0.42829905836E+00  0.51192897213E+00 -0.43972119245E+02  0.43977184792E+02  0.00000000000E+00 0. -1.
        -15    1    1    2    0    0 -0.10489168808E+01 -0.16326589590E+01 -0.11117885527E+00  0.26336081024E+01  0.17770000000E+01 0. -1.
         15    1    1    2    0    0  0.19493430056E+01  0.38128313674E+00  0.72469252157E+01  0.77214615887E+01  0.17770000000E+01 0. -1.
</event>
<event>
 6    1  0.3691007E-002  0.4714758E+02  0.7546771E-02  0.1310696E+00
        -11   -1    0    0    0    0  0.00000000000E+00  0.00000000000E+00  0.45600000000E+02  0.45600000000E+02  0.00000000000E+00 0. -1.
         11   -1    0    0    0    0 -0.00000000000E+00 -0.00000000000E+00 -0.45600000000E+02  0.45600000000E+02  0.00000000000E+00 0.  1.
        -11    1    1    2    0    0  0.69205837982E+00  0.12388461238E-01  0.44046976938E+02  0.44052415094E+02  0.00000000000E+00 0. -1.
         11    1    1    2    0    0 -0.15291030099E+01  0.10684571539E+01 -0.41004718783E+02  0.41047128026E+02  0.00000000000E+00 0.  1.
        -15    1    1    2    0    0 -0.59765640855E+00  0.69706201447E+00 -0.24206910393E+01  0.31401532992E+01  0.17770000000E+01 0.  1.
         15    1    1    2    0    0  0.14347010386E+01 -0.17779076296E+01 -0.62156711498E+00  0.29603035804E+01  0.17770000000E+01 0. -1.
</event>
<event>
 6    1  0.3691007E-002  0.4234391E+02  0.7546771E-02  0.1334854E+00
        -11   -1    0    0    0    0  0.00000000000E+00  0.00000000000E+00  0.45600000000E+02  0.45600000000E+02  0.00000000000E+00 0. -1.
         11   -1    0    0    0    0 -0.00000000000E+00 -0.00000000000E+00 -0.45600000000E+02  0.45600000000E+02  0.00000000000E+00 0.  1.
        -11    1    1    2    0    0 -0.49413712359E+00 -0.45609733130E+00  0.42515013763E+02  0.42520331508E+02  0.00000000000E+00 0. -1.
         11    1    1    2    0    0  0.16746013365E+00  0.23507648646E+01 -0.42124329767E+02  0.42190203800E+02  0.00000000000E+00 0.  1.
        -15    1    1    2    0    0 -0.16854556368E+01 -0.23855943769E+01  0.80108203158E+00  0.35115926096E+01  0.17770000000E+01 0. -1.
         15    1    1    2    0    0  0.20121326267E+01  0.49092684367E+00 -0.11917660277E+01  0.29778720822E+01  0.17770000000E+01 0.  1.
</event>
<event>
 6    1  0.3691007E-002  0.4613895E+02  0.7546771E-02  0.1315485E+00
        -11   -1    0    0    0    0  0.00000000000E+00  0.00000000000E+00  0.45600000000E+02  0.45600000000E+02  0.00000000000E+00 0. -1.
         11   -1    0    0    0    0 -0.00000000000E+00 -0.00000000000E+00 -0.45600000000E+02  0.45600000000E+02  0.00000000000E+00 0.  1.
        -11    1    1    2    0    0 -0.11695741304E+01  0.36674867518E+00  0.45044375037E+02  0.45061048930E+02  0.00000000000E+00 0. -1.
         11    1    1    2    0    0  0.12701568821E+01 -0.25259172505E+01 -0.36316328337E+02  0.36426216662E+02  0.00000000000E+00 0.  1.
        -15    1    1    2    0    0  0.35325704693E+00  0.81402963950E+00 -0.41488792044E+01  0.45998220018E+01  0.17770000000E+01 0.  1.
         15    1    1    2    0    0 -0.45383979863E+00  0.13451389359E+01 -0.45791674956E+01  0.51129124061E+01  0.17770000000E+01 0. -1.
</event>
<event>
 6    1  0.3691007E-002  0.4701159E+02  0.7546771E-02  0.1311333E+00
        -11   -1    0    0    0    0  0.00000000000E+00  0.00000000000E+00  0.45600000000E+02  0.45600000000E+02  0.00000000000E+00 0. -1.
         11   -1    0    0    0    0 -0.00000000000E+00 -0.00000000000E+00 -0.45600000000E+02  0.45600000000E+02  0.00000000000E+00 0.  1.
        -11    1    1    2    0    0 -0.31013795231E+00 -0.63505014242E+00  0.33771813682E+02  0.33779207711E+02  0.00000000000E+00 0. -1.
         11    1    1    2    0    0  0.64713333441E-01 -0.10713685148E+01 -0.44175374058E+02  0.44188411280E+02  0.00000000000E+00 0.  1.
        -15    1    1    2    0    0 -0.18062536837E+00 -0.22847663561E+01  0.73041399331E+01  0.78588149226E+01  0.17770000000E+01 0. -1.
         15    1    1    2    0    0  0.42604998724E+00  0.39911850133E+01  0.30994204429E+01  0.53735660863E+01  0.17770000000E+01 0. -1.
</event>
<event>
 6    1  0.3691007E-002  0.5250749E+02  0.7546771E-02  0.1287371E+00
        -11   -1    0    0    0    0  0.00000000000E+00  0.00000000000E+00  0.45600000000E+02  0.45600000000E+02  0.00000000000E+00 0. -1.
         11   -1    0    0    0    0 -0.00000000000E+00 -0.00000000000E+00 -0.45600000000E+02  0.45600000000E+02  0.00000000000E+00 0. -1.
        -11    1    1    2    0    0 -0.22393206865E+01  0.64933955235E+00  0.38622196481E+02  0.38692509094E+02  0.00000000000E+00 0. -1.
         11    1    1    2    0    0 -0.23578131802E+01  0.12561734547E+01 -0.28718252771E+02  0.28842248473E+02  0.00000000000E+00 0. -1.
        -15    1    1    2    0    0  0.38452958282E+00  0.45724950308E+01  0.48541622105E+01  0.69120325211E+01  0.17770000000E+01 0.  1.
         15    1    1    2    0    0  0.42126042839E+01 -0.64780080379E+01 -0.14758105920E+02  0.16753209912E+02  0.17770000000E+01 0. -1.
</event>
<event>
 6    1  0.3691007E-002  0.4761781E+02  0.7546771E-02  0.1308510E+00
        -11   -1    0    0    0    0  0.00000000000E+00  0.00000000000E+00  0.45600000000E+02  0.45600000000E+02  0.00000000000E+00 0. -1.
         11   -1    0    0    0    0 -0.00000000000E+00 -0.00000000000E+00 -0.45600000000E+02  0.45600000000E+02  0.00000000000E+00 0.  1.
        -11    1    1    2    0    0  0.25326256550E+01 -0.26999463289E+01  0.36611951047E+02  0.36798625822E+02  0.00000000000E+00 0. -1.
         11    1    1    2    0    0 -0.43287434054E+01  0.12875069526E+01 -0.43347567144E+02  0.43582189836E+02  0.00000000000E+00 0.  1.
        -15    1    1    2    0    0 -0.17718242987E+01  0.26106294914E+01  0.52949397969E+01  0.64147380414E+01  0.17770000000E+01 0. -1.
         15    1    1    2    0    0  0.35679420491E+01 -0.11981901152E+01  0.14406762997E+01  0.44044463010E+01  0.17770000000E+01 0.  1.
</event>
<event>
 6    1  0.3691007E-002  0.4610383E+02  0.7546771E-02  0.1315654E+00
        -11   -1    0    0    0    0  0.00000000000E+00  0.00000000000E+00  0.45600000000E+02  0.45600000000E+02  0.00000000000E+00 0. -1.
         11   -1    0    0    0    0 -0.00000000000E+00 -0.00000000000E+00 -0.45600000000E+02  0.45600000000E+02  0.00000000000E+00 0. -1.
        -11    1    1    2    0    0  0.55677787762E+00  0.70110891427E+00  0.30569976642E+02  0.30583084004E+02  0.00000000000E+00 0. -1.
         11    1    1    2    0    0  0.10355151626E+01 -0.10756735656E+01 -0.45071447405E+02  0.45096172082E+02  0.00000000000E+00 0. -1.
        -15    1    1    2    0    0 -0.54087041688E+00  0.14708296765E+01  0.32093457896E+01  0.39891741179E+01  0.17770000000E+01 0. -1.
         15    1    1    2    0    0 -0.10514226233E+01 -0.10962650252E+01  0.11292124973E+02  0.11531569796E+02  0.17770000000E+01 0.  1.
</event>
<event>
 6    1  0.3691007E-002  0.5066201E+02  0.7546771E-02  0.1295027E+00
        -11   -1    0    0    0    0  0.00000000000E+00  0.00000000000E+00  0.45600000000E+02  0.45600000000E+02  0.00000000000E+00 0.  1.
         11   -1    0    0    0    0 -0.00000000000E+00 -0.00000000000E+00 -0.45600000000E+02  0.45600000000E+02  0.00000000000E+00 0.  1.
        -11    1    1    2    0    0 -0.90793425263E+00 -0.53163110108E+00  0.31683784379E+02  0.31701248695E+02  0.00000000000E+00 0.  1.
         11    1    1    2    0    0  0.26510351950E+01  0.65759417424E+00 -0.40445871275E+02  0.40537993548E+02  0.00000000000E+00 0.  1.
        -15    1    1    2    0    0 -0.28487425557E+00 -0.17505503810E+01 -0.46349225342E+01  0.52712252728E+01  0.17770000000E+01 0.  1.
         15    1    1    2    0    0 -0.14582266868E+01  0.16245873078E+01  0.13397009430E+02  0.13689532485E+02  0.17770000000E+01 0.  1.
</event>
<event>
 6    1  0.3691007E-002  0.3549236E+02  0.7546771E-02  0.1376582E+00
        -11   -1    0    0    0    0  0.00000000000E+00  0.00000000000E+00  0.45600000000E+02  0.45600000000E+02  0.00000000000E+00 0.  1.
         11   -1    0    0    0    0 -0.00000000000E+00 -0.00000000000E+00 -0.45600000000E+02  0.45600000000E+02  0.00000000000E+00 0. -1.
        -11    1    1    2    0    0 -0.12551731336E-01  0.88365923415E+00  0.30603719132E+02  0.30616476543E+02  0.00000000000E+00 0.  1.
         11    1    1    2    0    0  0.56773287619E+01 -0.40487510595E+01 -0.28751120615E+02  0.29584647769E+02  0.00000000000E+00 0. -1.
        -15    1    1    2    0    0  0.10082167720E+02  0.11090030518E+01  0.72637810738E+01  0.12601596653E+02  0.17770000000E+01 0.  1.
         15    1    1    2    0    0 -0.15746944751E+02  0.20560887736E+01 -0.91163795912E+01  0.18397279035E+02  0.17770000000E+01 0. -1.
</event>
<event>
 6    1  0.3691007E-002  0.4745680E+02  0.7546771E-02  0.1309255E+00
        -11   -1    0    0    0    0  0.00000000000E+00  0.00000000000E+00  0.45600000000E+02  0.45600000000E+02  0.00000000000E+00 0. -1.
         11   -1    0    0    0    0 -0.00000000000E+00 -0.00000000000E+00 -0.45600000000E+02  0.45600000000E+02  0.00000000000E+00 0.  1.
        -11    1    1    2    0    0 -0.76652262198E+00 -0.99658789741E+00  0.42084614852E+02  0.42103391213E+02  0.00000000000E+00 0. -1.
         11    1    1    2    0    0 -0.12210133837E+00  0.89296104519E+00 -0.43733913598E+02  0.43743199320E+02  0.00000000000E+00 0.  1.
        -15    1    1    2    0    0  0.57842058592E+00 -0.17023995488E+01  0.10080455362E+01  0.27215104999E+01  0.17770000000E+01 0.  1.
         15    1    1    2    0    0  0.31020337444E+00  0.18060264011E+01  0.64125320938E+00  0.26318989672E+01  0.17770000000E+01 0.  1.
</event>
<event>
 6    1  0.3691007E-002  0.4728949E+02  0.7546771E-02  0.1310033E+00
        -11   -1    0    0    0    0  0.00000000000E+00  0.00000000000E+00  0.45600000000E+02  0.45600000000E+02  0.00000000000E+00 0.  1.
         11   -1    0    0    0    0 -0.00000000000E+00 -0.00000000000E+00 -0.45600000000E+02  0.45600000000E+02  0.00000000000E+00 0. -1.
        -11    1    1    2    0    0  0.15549562069E+01  0.89232353234E+00  0.39899226819E+02  0.39939484610E+02  0.00000000000E+00 0.  1.
         11    1    1    2    0    0 -0.10366873840E+01  0.35785380177E+00 -0.43896811378E+02  0.43910509326E+02  0.00000000000E+00 0. -1.
        -15    1    1    2    0    0  0.18249199269E+01  0.60093905224E+00  0.22931079994E+01  0.34795881626E+01  0.17770000000E+01 0. -1.
         15    1    1    2    0    0 -0.23431887498E+01 -0.18511163863E+01  0.17044765595E+01  0.38704179018E+01  0.17770000000E+01 0.  1.
</event>
<event>
 6    1  0.3691007E-002  0.4246499E+02  0.7546771E-02  0.1334200E+00
        -11   -1    0    0    0    0  0.00000000000E+00  0.00000000000E+00  0.45600000000E+02  0.45600000000E+02  0.00000000000E+00 0. -1.
         11   -1    0    0    0    0 -0.00000000000E+00 -0.00000000000E+00 -0.45600000000E+02  0.45600000000E+02  0.00000000000E+00 0. -1.
        -11    1    1    2    0    0 -0.58094592427E+00  0.11944951214E+00  0.41797713958E+02  0.41801921708E+02  0.00000000000E+00 0. -1.
         11    1    1    2    0    0 -0.31390471750E+01 -0.12063293444E+01 -0.43095336340E+02  0.43226344535E+02  0.00000000000E+00 0. -1.
        -15    1    1    2    0    0  0.32190896481E+01  0.46920117963E+00  0.18572568909E+01  0.41460607893E+01  0.17770000000E+01 0. -1.
         15    1    1    2    0    0  0.50090345120E+00  0.61767865263E+00 -0.55963450958E+00  0.20256729671E+01  0.17770000000E+01 0.  1.
</event>
<event>
 6    1  0.3691007E-002  0.3788188E+02  0.7546771E-02  0.1360871E+00
        -11   -1    0    0    0    0  0.00000000000E+00  0.00000000000E+00  0.45600000000E+02  0.45600000000E+02  0.00000000000E+00 0.  1.
         11   -1    0    0    0    0 -0.00000000000E+00 -0.00000000000E+00 -0.45600000000E+02  0.45600000000E+02  0.00000000000E+00 0.  1.
        -11    1    1    2    0    0 -0.34876897412E+01  0.36847011849E+01  0.38554866440E+02  0.38887256637E+02  0.00000000000E+00 0.  1.
         11    1    1    2    0    0  0.55733329776E+00 -0.13188122245E+01 -0.36959119119E+02  0.36986840526E+02  0.00000000000E+00 0.  1.
        -15    1    1    2    0    0  0.62944770837E+01 -0.67415668133E+01 -0.37511820396E+00  0.94004046467E+01  0.17770000000E+01 0.  1.
         15    1    1    2    0    0 -0.33641206403E+01  0.43756778529E+01 -0.12206291174E+01  0.59254981898E+01  0.17770000000E+01 0. -1.
</event>
<event>
 6    1  0.3691007E-002  0.4748662E+02  0.7546771E-02  0.1309117E+00
        -11   -1    0    0    0    0  0.00000000000E+00  0.00000000000E+00  0.45600000000E+02  0.45600000000E+02  0.00000000000E+00 0. -1.
         11   -1    0    0    0    0 -0.00000000000E+00 -0.00000000000E+00 -0.45600000000E+02  0.45600000000E+02  0.00000000000E+00 0.  1.
        -11    1    1    2    0    0 -0.40986384719E+00  0.14412580084E+01  0.43687691272E+02  0.43713379893E+02  0.00000000000E+00 0. -1.
         11    1    1    2    0    0 -0.43943296861E+00  0.19124356169E+01 -0.32957271665E+02  0.33015636704E+02  0.00000000000E+00 0.  1.
        -15    1    1    2    0    0 -0.16855615754E+01 -0.27234884686E+01 -0.41928169213E+00  0.36867375009E+01  0.17770000000E+01 0. -1.
         15    1    1    2    0    0  0.25348583912E+01 -0.63020515680E+00 -0.10311137914E+02  0.10784245902E+02  0.17770000000E+01 0.  1.
</event>
<event>
 6    1  0.3691007E-002  0.4831510E+02  0.7546771E-02  0.1305321E+00
        -11   -1    0    0    0    0  0.00000000000E+00  0.00000000000E+00  0.45600000000E+02  0.45600000000E+02  0.00000000000E+00 0.  1.
         11   -1    0    0    0    0 -0.00000000000E+00 -0.00000000000E+00 -0.45600000000E+02  0.45600000000E+02  0.00000000000E+00 0. -1.
        -11    1    1    2    0    0 -0.77555262701E+00  0.38259850197E+01  0.36352919901E+02  0.36561925942E+02  0.00000000000E+00 0.  1.
         11    1    1    2    0    0  0.82412520753E+00 -0.32312912964E+00 -0.42875764764E+02  0.42884901759E+02  0.00000000000E+00 0. -1.
        -15    1    1    2    0    0 -0.27141278488E+00 -0.54662485481E+01  0.13091886934E+01  0.59012915641E+01  0.17770000000E+01 0. -1.
         15    1    1    2    0    0  0.22284020436E+00  0.19633926580E+01  0.52136561690E+01  0.58518807348E+01  0.17770000000E+01 0. -1.
</event>
<event>
 6    1  0.3691007E-002  0.4235567E+02  0.7546771E-02  0.1334790E+00
        -11   -1    0    0    0    0  0.00000000000E+00  0.00000000000E+00  0.45600000000E+02  0.45600000000E+02  0.00000000000E+00 0.  1.
         11   -1    0    0    0    0 -0.00000000000E+00 -0.00000000000E+00 -0.45600000000E+02  0.45600000000E+02  0.00000000000E+00 0. -1.
        -11    1    1    2    0    0  0.86990067966E+00 -0.51149876890E+00  0.42023755730E+02  0.42035870443E+02  0.00000000000E+00 0.  1.
         11    1    1    2    0    0 -0.92250351834E+00  0.17881047835E+01 -0.42639896933E+02  0.42687341706E+02  0.00000000000E+00 0. -1.
        -15    1    1    2    0    0 -0.87828197610E+00  0.97181677865E+00  0.21621688832E+01  0.30900664006E+01  0.17770000000E+01 0.  1.
         15    1    1    2    0    0  0.93088481478E+00 -0.22484227932E+01 -0.15460276804E+01  0.33867214506E+01  0.17770000000E+01 0.  1.
</event>
<event>
 6    1  0.3691007E-002  0.4993896E+02  0.7546771E-02  0.1298129E+00
        -11   -1    0    0    0    0  0.00000000000E+00  0.00000000000E+00  0.45600000000E+02  0.45600000000E+02  0.00000000000E+00 0. -1.
         11   -1    0    0    0    0 -0.00000000000E+00 -0.00000000000E+00 -0.45600000000E+02  0.45600000000E+02  0.00000000000E+00 0. -1.
        -11    1    1    2    0    0  0.59799723409E+01 -0.57901801836E+01  0.25900437170E+02  0.27205126380E+02  0.00000000000E+00 0. -1.
         11    1    1    2    0    0  0.11558538464E+01 -0.58798723690E-01 -0.41244807555E+02  0.41261042227E+02  0.00000000000E+00 0. -1.
        -15    1    1    2    0    0 -0.66827025636E+01  0.64662227152E+01  0.17463259843E+02  0.19864383280E+02  0.17770000000E+01 0. -1.
         15    1    1    2    0    0 -0.45312362374E+00 -0.61724380788E+00 -0.21188894578E+01  0.28694481127E+01  0.17770000000E+01 0.  1.
</event>
<event>
 6    1  0.3691007E-002  0.4673793E+02  0.7546771E-02  0.1312624E+00
        -11   -1    0    0    0    0  0.00000000000E+00  0.00000000000E+00  0.45600000000E+02  0.45600000000E+02  0.00000000000E+00 0. -1.
         11   -1    0    0    0    0 -0.00000000000E+00 -0.00000000000E+00 -0.45600000000E+02  0.45600000000E+02  0.00000000000E+00 0. -1.
        -11    1    1    2    0    0 -0.63447131836E+00  0.83976919644E+00  0.41815610698E+02  0.41828854445E+02  0.00000000000E+00 0. -1.
         11    1    1    2    0    0  0.56188747743E+00  0.27896531117E+00 -0.44457643142E+02  0.44462068923E+02  0.00000000000E+00 0. -1.
        -15    1    1    2    0    0 -0.48155502292E+00 -0.13142389099E+01  0.13409322486E+01  0.26296287661E+01  0.17770000000E+01 0. -1.
         15    1    1    2    0    0  0.55413886385E+00  0.19550440228E+00  0.13011001955E+01  0.22794478653E+01  0.17770000000E+01 0. -1.
</event>
<event>
 6    1  0.3691007E-002  0.4684703E+02  0.7546771E-02  0.1312108E+00
        -11   -1    0    0    0    0  0.00000000000E+00  0.00000000000E+00  0.45600000000E+02  0.45600000000E+02  0.00000000000E+00 0.  1.
         11   -1    0    0    0    0 -0.00000000000E+00 -0.00000000000E+00 -0.45600000000E+02  0.45600000000E+02  0.00000000000E+00 0. -1.
        -11    1    1    2    0    0 -0.95040031809E+00  0.37726411743E+01  0.79458090916E+01  0.88471444158E+01  0.00000000000E+00 0.  1.
         11    1    1    2    0    0 -0.20122333867E+00 -0.97633290571E+00 -0.44341767961E+02  0.44352971746E+02  0.00000000000E+00 0. -1.
        -15    1    1    2    0    0  0.18881196227E+01 -0.37330086335E+01  0.35308540550E+02  0.35599875196E+02  0.17770000000E+01 0.  1.
         15    1    1    2    0    0 -0.73649596597E+00  0.93670036497E+00  0.10874183198E+01  0.24000086424E+01  0.17770000000E+01 0. -1.
</event>
<event>
 6    1  0.3691007E-002  0.4712006E+02  0.7546771E-02  0.1310824E+00
        -11   -1    0    0    0    0  0.00000000000E+00  0.00000000000E+00  0.45600000000E+02  0.45600000000E+02  0.00000000000E+00 0.  1.
         11   -1    0    0    0    0 -0.00000000000E+00 -0.00000000000E+00 -0.45600000000E+02  0.45600000000E+02  0.00000000000E+00 0.  1.
        -11    1    1    2    0    0  0.24511519793E+00  0.99846580444E+00  0.38601755924E+02  0.38615444784E+02  0.00000000000E+00 0.  1.
         11    1    1    2    0    0 -0.36377231653E+00 -0.41702234073E+01 -0.43880722865E+02  0.44079937985E+02  0.00000000000E+00 0.  1.
        -15    1    1    2    0    0  0.23548757229E+01  0.20750687702E+01  0.27660542450E+01  0.45453421387E+01  0.17770000000E+01 0. -1.
         15    1    1    2    0    0 -0.22362186043E+01  0.10966888327E+01  0.25129126959E+01  0.39592750926E+01  0.17770000000E+01 0. -1.
</event>
<event>
 6    1  0.3691007E-002  0.4705646E+02  0.7546771E-02  0.1311123E+00
        -11   -1    0    0    0    0  0.00000000000E+00  0.00000000000E+00  0.45600000000E+02  0.45600000000E+02  0.00000000000E+00 0.  1.
         11   -1    0    0    0    0 -0.00000000000E+00 -0.00000000000E+00 -0.45600000000E+02  0.45600000000E+02  0.00000000000E+00 0. -1.
        -11    1    1    2    0    0 -0.40377404102E+01 -0.11731659367E+01  0.43942833023E+02  0.44143541317E+02  0.00000000000E+00 0.  1.
         11    1    1    2    0    0 -0.62527196151E+00  0.16944137081E+01 -0.36764340119E+02  0.36808677064E+02  0.00000000000E+00 0. -1.
        -15    1    1    2    0    0  0.35694958428E+01  0.87710971043E+00 -0.21206519959E+01  0.46005995157E+01  0.17770000000E+01 0.  1.
         15    1    1    2    0    0  0.10935165290E+01 -0.13983574818E+01 -0.50578409087E+01  0.56471821029E+01  0.17770000000E+01 0. -1.
</event>
<event>
 6    1  0.3691007E-002  0.5122485E+02  0.7546771E-02  0.1292653E+00
        -11   -1    0    0    0    0  0.00000000000E+00  0.00000000000E+00  0.45600000000E+02  0.45600000000E+02  0.00000000000E+00 0.  1.
         11   -1    0    0    0    0 -0.00000000000E+00 -0.00000000000E+00 -0.45600000000E+02  0.45600000000E+02  0.00000000000E+00 0. -1.
        -11    1    1    2    0    0 -0.61792287518E+00 -0.12531755590E+01  0.32502263217E+02  0.32532282304E+02  0.00000000000E+00 0.  1.
         11    1    1    2    0    0 -0.54423836430E+00 -0.40122552375E+00 -0.39969433116E+02  0.39975151793E+02  0.00000000000E+00 0. -1.
        -15    1    1    2    0    0 -0.86602158196E+00 -0.79511279939E+00  0.12388048142E+02  0.12569950816E+02  0.17770000000E+01 0. -1.
         15    1    1    2    0    0  0.20281828214E+01  0.24495138821E+01 -0.49208782435E+01  0.61226150870E+01  0.17770000000E+01 0.  1.
</event>
<event>
 6    1  0.3691007E-002  0.4663172E+02  0.7546771E-02  0.1313128E+00
        -11   -1    0    0    0    0  0.00000000000E+00  0.00000000000E+00  0.45600000000E+02  0.45600000000E+02  0.00000000000E+00 0.  1.
         11   -1    0    0    0    0 -0.00000000000E+00 -0.00000000000E+00 -0.45600000000E+02  0.45600000000E+02  0.00000000000E+00 0.  1.
        -11    1    1    2    0    0  0.44313870186E+00 -0.53242446024E+00  0.44562893241E+02  0.44568276854E+02  0.00000000000E+00 0.  1.
         11    1    1    2    0    0  0.18391047320E+01  0.30711542870E+01 -0.30294601215E+02  0.30505362769E+02  0.00000000000E+00 0.  1.
        -15    1    1    2    0    0 -0.15980051219E+01 -0.18389699670E+01 -0.13688123774E+02  0.14016343759E+02  0.17770000000E+01 0.  1.
         15    1    1    2    0    0 -0.68423831190E+00 -0.69975985980E+00 -0.58016825176E+00  0.21100166182E+01  0.17770000000E+01 0.  1.
</event>
<event>
 6    1  0.3691007E-002  0.4370607E+02  0.7546771E-02  0.1327641E+00
        -11   -1    0    0    0    0  0.00000000000E+00  0.00000000000E+00  0.45600000000E+02  0.45600000000E+02  0.00000000000E+00 0. -1.
         11   -1    0    0    0    0 -0.00000000000E+00 -0.00000000000E+00 -0.45600000000E+02  0.45600000000E+02  0.00000000000E+00 0. -1.
        -11    1    1    2    0    0 -0.19698163550E-01  0.18426810334E+01  0.43959684846E+02  0.43998292617E+02  0.00000000000E+00 0. -1.
         11    1    1    2    0    0 -0.25981448033E+01 -0.27195477766E+01 -0.33792332052E+01  0.50562351195E+01  0.00000000000E+00 0. -1.
        -15    1    1    2    0    0 -0.10057317628E+01 -0.41237937960E+01 -0.22261229598E+02  0.22731855266E+02  0.17770000000E+01 0. -1.
         15    1    1    2    0    0  0.36235747296E+01  0.50006605392E+01 -0.18319222043E+02  0.19413616997E+02  0.17770000000E+01 0. -1.
</event>
<event>
 6    1  0.3691007E-002  0.4596569E+02  0.7546771E-02  0.1316322E+00
        -11   -1    0    0    0    0  0.00000000000E+00  0.00000000000E+00  0.45600000000E+02  0.45600000000E+02  0.00000000000E+00 0.  1.
         11   -1    0    0    0    0 -0.00000000000E+00 -0.00000000000E+00 -0.45600000000E+02  0.45600000000E+02  0.00000000000E+00 0.  1.
        -11    1    1    2    0    0  0.66500502030E+00  0.41176492241E+00  0.32089860317E+02  0.32099391228E+02  0.00000000000E+00 0.  1.
         11    1    1    2    0    0 -0.34872544527E+00 -0.13988575380E+01 -0.45211333155E+02  0.45234312833E+02  0.00000000000E+00 0.  1.
        -15    1    1    2    0    0  0.10409069708E+01  0.69037403275E+00  0.75299724928E+01  0.78369840098E+01  0.17770000000E+01 0. -1.
         15    1    1    2    0    0 -0.13571865459E+01  0.29671858286E+00  0.55915003446E+01  0.60293119293E+01  0.17770000000E+01 0.  1.
</event>
<event>
 6    1  0.3691007E-002  0.4765745E+02  0.7546771E-02  0.1308327E+00
        -11   -1    0    0    0    0  0.00000000000E+00  0.00000000000E+00  0.45600000000E+02  0.45600000000E+02  0.00000000000E+00 0.  1.
         11   -1    0    0    0    0 -0.00000000000E+00 -0.00000000000E+00 -0.45600000000E+02  0.45600000000E+02  0.00000000000E+00 0. -1.
        -11    1    1    2    0    0  0.17177641018E+01 -0.18510264324E+00  0.37839468069E+02  0.37878890167E+02  0.00000000000E+00 0.  1.
         11    1    1    2    0    0  0.61993269638E+00 -0.15778758060E+00 -0.43537854683E+02  0.43542553943E+02  0.00000000000E+00 0. -1.
        -15    1    1    2    0    0  0.13341825311E+01 -0.13236175688E+01  0.45354805012E+01  0.52211415296E+01  0.17770000000E+01 0.  1.
         15    1    1    2    0    0 -0.36718793293E+01  0.16665077926E+01  0.11629061121E+01  0.45574143610E+01  0.17770000000E+01 0. -1.
</event>
<event>
 6    1  0.3691007E-002  0.3882289E+02  0.7546771E-02  0.1355049E+00
        -11   -1    0    0    0    0  0.00000000000E+00  0.00000000000E+00  0.45600000000E+02  0.45600000000E+02  0.00000000000E+00 0.  1.
         11   -1    0    0    0    0 -0.00000000000E+00 -0.00000000000E+00 -0.45600000000E+02  0.45600000000E+02  0.00000000000E+00 0. -1.
        -11    1    1    2    0    0  0.20064867295E+01  0.25867886422E+01  0.38653604489E+02  0.38791991499E+02  0.00000000000E+00 0.  1.
         11    1    1    2    0    0 -0.26174431505E+00 -0.49614457585E+00 -0.38897861359E+02  0.38901905966E+02  0.00000000000E+00 0. -1.
        -15    1    1    2    0    0 -0.33348343693E+01 -0.20846832682E+01  0.59337112830E+01  0.73371440759E+01  0.17770000000E+01 0.  1.
         15    1    1    2    0    0  0.15900919548E+01 -0.59607981377E-02 -0.56894544127E+01  0.61689584591E+01  0.17770000000E+01 0. -1.
</event>
<event>
 6    1  0.3691007E-002  0.4784668E+02  0.7546771E-02  0.1307456E+00
        -11   -1    0    0    0    0  0.00000000000E+00  0.00000000000E+00  0.45600000000E+02  0.45600000000E+02  0.00000000000E+00 0.  1.
         11   -1    0    0    0    0 -0.00000000000E+00 -0.00000000000E+00 -0.45600000000E+02  0.45600000000E+02  0.00000000000E+00 0. -1.
        -11    1    1    2    0    0  0.48383445631E+00 -0.31737712380E+00  0.28011513297E+02  0.28017489202E+02  0.00000000000E+00 0.  1.
         11    1    1    2    0    0 -0.21755256111E+01 -0.39569810551E+01 -0.43117507291E+02  0.43353316433E+02  0.00000000000E+00 0. -1.
        -15    1    1    2    0    0 -0.47777356265E+01  0.22967386300E+01  0.87173249047E+01  0.10356217869E+02  0.17770000000E+01 0.  1.
         15    1    1    2    0    0  0.64694267813E+01  0.19776195489E+01  0.63886690893E+01  0.94729764959E+01  0.17770000000E+01 0. -1.
</event>
<event>
 6    1  0.3691007E-002  0.4197822E+02  0.7546771E-02  0.1336844E+00
        -11   -1    0    0    0    0  0.00000000000E+00  0.00000000000E+00  0.45600000000E+02  0.45600000000E+02  0.00000000000E+00 0. -1.
         11   -1    0    0    0    0 -0.00000000000E+00 -0.00000000000E+00 -0.45600000000E+02  0.45600000000E+02  0.00000000000E+00 0. -1.
        -11    1    1    2    0    0 -0.80852189223E+00  0.21127052851E+01  0.42768775612E+02  0.42828558213E+02  0.00000000000E+00 0. -1.
         11    1    1    2    0    0 -0.17332104360E+00  0.68213740949E+00 -0.41188966392E+02  0.41194979112E+02  0.00000000000E+00 0. -1.
        -15    1    1    2    0    0 -0.12149760503E+00 -0.38438414893E+01  0.19285520669E+00  0.42408491123E+01  0.17770000000E+01 0.  1.
         15    1    1    2    0    0  0.11033405409E+01  0.10489987947E+01 -0.17726644265E+01  0.29356135626E+01  0.17770000000E+01 0.  1.
</event>
<event>
 6    1  0.3691007E-002  0.5348739E+02  0.7546771E-02  0.1283451E+00
        -11   -1    0    0    0    0  0.00000000000E+00  0.00000000000E+00  0.45600000000E+02  0.45600000000E+02  0.00000000000E+00 0. -1.
         11   -1    0    0    0    0 -0.00000000000E+00 -0.00000000000E+00 -0.45600000000E+02  0.45600000000E+02  0.00000000000E+00 0. -1.
        -11    1    1    2    0    0 -0.43681705334E+01  0.16832519919E+01  0.37420937350E+02  0.37712608015E+02  0.00000000000E+00 0. -1.
         11    1    1    2    0    0  0.13842773939E+01  0.24357265927E+01 -0.22022803820E+02  0.22200289999E+02  0.00000000000E+00 0. -1.
        -15    1    1    2    0    0  0.11494362383E+01 -0.14888115180E+01  0.75845765685E+01  0.80138189477E+01  0.17770000000E+01 0. -1.
         15    1    1    2    0    0  0.18344569011E+01 -0.26301670666E+01 -0.22982710099E+02  0.23273283039E+02  0.17770000000E+01 0. -1.
</event>
<event>
 6    1  0.3691007E-002  0.3950138E+02  0.7546771E-02  0.1350968E+00
        -11   -1    0    0    0    0  0.00000000000E+00  0.00000000000E+00  0.45600000000E+02  0.45600000000E+02  0.00000000000E+00 0. -1.
         11   -1    0    0    0    0 -0.00000000000E+00 -0.00000000000E+00 -0.45600000000E+02  0.45600000000E+02  0.00000000000E+00 0. -1.
        -11    1    1    2    0    0  0.58225507515E+00 -0.43460273496E+00  0.39791609680E+02  0.39798242441E+02  0.00000000000E+00 0. -1.
         11    1    1    2    0    0 -0.30163684099E+01  0.39800089250E+01 -0.39006991861E+02  0.39325365396E+02  0.00000000000E+00 0. -1.
        -15    1    1    2    0    0  0.48758519865E+01 -0.35566666829E+01 -0.41637708864E+01  0.75444368565E+01  0.17770000000E+01 0. -1.
         15    1    1    2    0    0 -0.24417386517E+01  0.11260492896E-01  0.33791530683E+01  0.45319553066E+01  0.17770000000E+01 0.  1.
</event>
<event>
 6    1  0.3691007E-002  0.4726510E+02  0.7546771E-02  0.1310146E+00
        -11   -1    0    0    0    0  0.00000000000E+00  0.00000000000E+00  0.45600000000E+02  0.45600000000E+02  0.00000000000E+00 0. -1.
         11   -1    0    0    0    0 -0.00000000000E+00 -0.00000000000E+00 -0.45600000000E+02  0.45600000000E+02  0.00000000000E+00 0. -1.
        -11    1    1    2    0    0  0.18463342251E+00 -0.16380235172E+01  0.41434648496E+02  0.41467424644E+02  0.00000000000E+00 0. -1.
         11    1    1    2    0    0  0.78773570241E+00 -0.20378612645E+00 -0.43927360109E+02  0.43934895271E+02  0.00000000000E+00 0. -1.
        -15    1    1    2    0    0 -0.14297951347E+01  0.22504725415E+01  0.88515810757E+00  0.33241802994E+01  0.17770000000E+01 0.  1.
         15    1    1    2    0    0  0.45742600983E+00 -0.40866289783E+00  0.16075535052E+01  0.24734997859E+01  0.17770000000E+01 0.  1.
</event>
<event>
 6    1  0.3691007E-002  0.4644577E+02  0.7546771E-02  0.1314013E+00
        -11   -1    0    0    0    0  0.00000000000E+00  0.00000000000E+00  0.45600000000E+02  0.45600000000E+02  0.00000000000E+00 0. -1.
         11   -1    0    0    0    0 -0.00000000000E+00 -0.00000000000E+00 -0.45600000000E+02  0.45600000000E+02  0.00000000000E+00 0. -1.
        -11    1    1    2    0    0  0.27290490000E+00 -0.11371461776E+01  0.44738952807E+02  0.44754234177E+02  0.00000000000E+00 0. -1.
         11    1    1    2    0    0 -0.17520936717E+01  0.61842178328E+00 -0.29829512803E+02  0.29887323597E+02  0.00000000000E+00 0. -1.
        -15    1    1    2    0    0  0.26046153497E+01 -0.10191370227E+01 -0.12752176781E+02  0.13175674671E+02  0.17770000000E+01 0. -1.
         15    1    1    2    0    0 -0.11254265780E+01  0.15378614170E+01 -0.21572632234E+01  0.33827675556E+01  0.17770000000E+01 0. -1.
</event>
<event>
 6    1  0.3691007E-002  0.4650182E+02  0.7546771E-02  0.1313746E+00
        -11   -1    0    0    0    0  0.00000000000E+00  0.00000000000E+00  0.45600000000E+02  0.45600000000E+02  0.00000000000E+00 0.  1.
         11   -1    0    0    0    0 -0.00000000000E+00 -0.00000000000E+00 -0.45600000000E+02  0.45600000000E+02  0.00000000000E+00 0. -1.
        -11    1    1    2    0    0 -0.21463468516E+01  0.20687040434E+00  0.33600143176E+02  0.33669262267E+02  0.00000000000E+00 0.  1.
         11    1    1    2    0    0  0.81013811702E+00 -0.64192458855E+00 -0.44686229763E+02  0.44698182529E+02  0.00000000000E+00 0. -1.
        -15    1    1    2    0    0  0.17692261036E+01 -0.18099240485E+01  0.81125501990E+01  0.86820035590E+01  0.17770000000E+01 0. -1.
         15    1    1    2    0    0 -0.43301736904E+00  0.22449782327E+01  0.29735363884E+01  0.41505516453E+01  0.17770000000E+01 0.  1.
</event>
<event>
 6    1  0.3691007E-002  0.4634855E+02  0.7546771E-02  0.1314478E+00
        -11   -1    0    0    0    0  0.00000000000E+00  0.00000000000E+00  0.45600000000E+02  0.45600000000E+02  0.00000000000E+00 0.  1.
         11   -1    0    0    0    0 -0.00000000000E+00 -0.00000000000E+00 -0.45600000000E+02  0.45600000000E+02  0.00000000000E+00 0.  1.
        -11    1    1    2    0    0  0.11655925000E+01  0.81813345933E+00  0.44828841478E+02  0.44851454563E+02  0.00000000000E+00 0.  1.
         11    1    1    2    0    0  0.25950417837E+00 -0.10963513492E+01 -0.38502586975E+02  0.38519067129E+02  0.00000000000E+00 0.  1.
        -15    1    1    2    0    0 -0.14321624301E+01 -0.68524029277E+00 -0.45601989490E+01  0.51452684030E+01  0.17770000000E+01 0.  1.
         15    1    1    2    0    0  0.70657517253E-02  0.96345818265E+00 -0.17660555534E+01  0.26842099047E+01  0.17770000000E+01 0. -1.
</event>
<event>
 6    1  0.3691007E-002  0.4687473E+02  0.7546771E-02  0.1311977E+00
        -11   -1    0    0    0    0  0.00000000000E+00  0.00000000000E+00  0.45600000000E+02  0.45600000000E+02  0.00000000000E+00 0. -1.
         11   -1    0    0    0    0 -0.00000000000E+00 -0.00000000000E+00 -0.45600000000E+02  0.45600000000E+02  0.00000000000E+00 0. -1.
        -11    1    1    2    0    0 -0.17167379556E+01 -0.10484577090E+01  0.23682668185E+02  0.23767945329E+02  0.00000000000E+00 0. -1.
         11    1    1    2    0    0  0.12941558716E+01 -0.51716550095E-01 -0.44306343491E+02  0.44325270305E+02  0.00000000000E+00 0. -1.
        -15    1    1    2    0    0 -0.83474995413E+00  0.34183852018E+01  0.24160669029E+01  0.46235563318E+01  0.17770000000E+01 0.  1.
         15    1    1    2    0    0  0.12573320381E+01 -0.23182109427E+01  0.18207608403E+02  0.18483228035E+02  0.17770000000E+01 0. -1.
</event>
<event>
 6    1  0.3691007E-002  0.4941989E+02  0.7546771E-02  0.1300393E+00
        -11   -1    0    0    0    0  0.00000000000E+00  0.00000000000E+00  0.45600000000E+02  0.45600000000E+02  0.00000000000E+00 0.  1.
         11   -1    0    0    0    0 -0.00000000000E+00 -0.00000000000E+00 -0.45600000000E+02  0.45600000000E+02  0.00000000000E+00 0. -1.
        -11    1    1    2    0    0 -0.32738022398E+00  0.55534102696E+01  0.41408087046E+02  0.41780105508E+02  0.00000000000E+00 0.  1.
         11    1    1    2    0    0 -0.21500904060E+01  0.25880104150E+01 -0.32930926837E+02  0.33102365913E+02  0.00000000000E+00 0. -1.
        -15    1    1    2    0    0  0.12976619861E+01 -0.76046948778E+00  0.21734810838E+01  0.31849630286E+01  0.17770000000E+01 0.  1.
         15    1    1    2    0    0  0.11798086438E+01 -0.73809511968E+01 -0.10650641292E+02  0.13132565551E+02  0.17770000000E+01 0. -1.
</event>
<event>
 6    1  0.3691007E-002  0.4640150E+02  0.7546771E-02  0.1314225E+00
        -11   -1    0    0    0    0  0.00000000000E+00  0.00000000000E+00  0.45600000000E+02  0.45600000000E+02  0.00000000000E+00 0.  1.
         11   -1    0    0    0    0 -0.00000000000E+00 -0.00000000000E+00 -0.45600000000E+02  0.45600000000E+02  0.00000000000E+00 0.  1.
        -11    1    1    2    0    0  0.22349052013E+01 -0.17836636178E+01  0.33658688527E+02  0.33779928516E+02  0.00000000000E+00 0.  1.
         11    1    1    2    0    0  0.54789248294E+00  0.16363977517E+01 -0.44765248332E+02  0.44798498212E+02  0.00000000000E+00 0.  1.
        -15    1    1    2    0    0 -0.12093650978E+01  0.11934117098E+01  0.88448236848E+01  0.91801650565E+01  0.17770000000E+01 0.  1.
         15    1    1    2    0    0 -0.15734325864E+01 -0.10461458437E+01  0.22617361203E+01  0.34414082158E+01  0.17770000000E+01 0. -1.
</event>
<event>
 6    1  0.3691007E-002  0.4678058E+02  0.7546771E-02  0.1312422E+00
        -11   -1    0    0    0    0  0.00000000000E+00  0.00000000000E+00  0.45600000000E+02  0.45600000000E+02  0.00000000000E+00 0.  1.
         11   -1    0    0    0    0 -0.00000000000E+00 -0.00000000000E+00 -0.45600000000E+02  0.45600000000E+02  0.00000000000E+00 0.  1.
        -11    1    1    2    0    0 -0.16868542551E+01 -0.28796450437E+01  0.44293873044E+02  0.44419421677E+02  0.00000000000E+00 0.  1.
         11    1    1    2    0    0  0.59743573401E+00 -0.12498268270E+01 -0.16186176050E+02  0.16245346770E+02  0.00000000000E+00 0.  1.
        -15    1    1    2    0    0  0.50506866216E+01  0.51596618120E+01 -0.16438230273E+02  0.18041748498E+02  0.17770000000E+01 0. -1.
         15    1    1    2    0    0 -0.39612681005E+01 -0.10301899413E+01 -0.11669466722E+02  0.12493483055E+02  0.17770000000E+01 0.  1.
</event>
<event>
 6    1  0.3691007E-002  0.4595417E+02  0.7546771E-02  0.1316378E+00
        -11   -1    0    0    0    0  0.00000000000E+00  0.00000000000E+00  0.45600000000E+02  0.45600000000E+02  0.00000000000E+00 0.  1.
         11   -1    0    0    0    0 -0.00000000000E+00 -0.00000000000E+00 -0.45600000000E+02  0.45600000000E+02  0.00000000000E+00 0.  1.
        -11    1    1    2    0    0 -0.17160570571E+01 -0.13020817850E+01  0.45194522699E+02  0.45245830203E+02  0.00000000000E+00 0.  1.
         11    1    1    2    0    0 -0.75871686853E+00 -0.41104403827E+00 -0.28614937821E+02  0.28627945699E+02  0.00000000000E+00 0.  1.
        -15    1    1    2    0    0  0.17492378254E+01  0.16732247079E+01 -0.82862629487E+01  0.88135915805E+01  0.17770000000E+01 0.  1.
         15    1    1    2    0    0  0.72553610018E+00  0.39901115336E-01 -0.82933219299E+01  0.85126325167E+01  0.17770000000E+01 0. -1.
</event>
<event>
 6    1  0.3691007E-002  0.4698701E+02  0.7546771E-02  0.1311449E+00
        -11   -1    0    0    0    0  0.00000000000E+00  0.00000000000E+00  0.45600000000E+02  0.45600000000E+02  0.00000000000E+00 0. -1.
         11   -1    0    0    0    0 -0.00000000000E+00 -0.00000000000E+00 -0.45600000000E+02  0.45600000000E+02  0.00000000000E+00 0.  1.
        -11    1    1    2    0    0 -0.72557690517E+00 -0.80011773191E+00  0.41726324200E+02  0.41740301646E+02  0.00000000000E+00 0. -1.
         11    1    1    2    0    0  0.40757250412E+00 -0.49457028297E+00 -0.44208340203E+02  0.44212985181E+02  0.00000000000E+00 0.  1.
        -15    1    1    2    0    0  0.96168744688E+00  0.63843970014E+00  0.24587969697E+01  0.32458988792E+01  0.17770000000E+01 0.  1.
         15    1    1    2    0    0 -0.64368304583E+00  0.65624831473E+00  0.23219033772E-01  0.20008142936E+01  0.17770000000E+01 0.  1.
</event>
<event>
 6    1  0.3691007E-002  0.4869076E+02  0.7546771E-02  0.1303629E+00
        -11   -1    0    0    0    0  0.00000000000E+00  0.00000000000E+00  0.45600000000E+02  0.45600000000E+02  0.00000000000E+00 0.  1.
         11   -1    0    0    0    0 -0.00000000000E+00 -0.00000000000E+00 -0.45600000000E+02  0.45600000000E+02  0.00000000000E+00 0.  1.
        -11    1    1    2    0    0 -0.11598776218E+01 -0.88116638431E+00  0.42484277640E+02  0.42509241547E+02  0.00000000000E+00 0.  1.
         11    1    1    2    0    0 -0.28928850924E+00 -0.16549348722E+01 -0.36553347591E+02  0.36591935141E+02  0.00000000000E+00 0.  1.
        -15    1    1    2    0    0 -0.12446573840E+00  0.59973780684E+01 -0.43219595323E+01  0.76040185832E+01  0.17770000000E+01 0.  1.
         15    1    1    2    0    0  0.15736318695E+01 -0.34612768118E+01 -0.16089705164E+01  0.44948047290E+01  0.17770000000E+01 0. -1.
</event>
<event>
 6    1  0.3691007E-002  0.4633814E+02  0.7546771E-02  0.1314528E+00
        -11   -1    0    0    0    0  0.00000000000E+00  0.00000000000E+00  0.45600000000E+02  0.45600000000E+02  0.00000000000E+00 0.  1.
         11   -1    0    0    0    0 -0.00000000000E+00 -0.00000000000E+00 -0.45600000000E+02  0.45600000000E+02  0.00000000000E+00 0.  1.
        -11    1    1    2    0    0 -0.92984500946E+00  0.24435681132E+00  0.44851556285E+02  0.44861859337E+02  0.00000000000E+00 0.  1.
         11    1    1    2    0    0  0.21640880565E+01 -0.28906039352E+01 -0.34494213861E+02  0.34682699695E+02  0.00000000000E+00 0.  1.
        -15    1    1    2    0    0 -0.12131646732E+01  0.16729376501E+01 -0.31341774406E+01  0.41534667610E+01  0.17770000000E+01 0.  1.
         15    1    1    2    0    0 -0.21078373838E-01  0.97330947383E+00 -0.72231649831E+01  0.75019742070E+01  0.17770000000E+01 0.  1.
</event>
<event>
 6    1  0.3691007E-002  0.4733725E+02  0.7546771E-02  0.1309810E+00
        -11   -1    0    0    0    0  0.00000000000E+00  0.00000000000E+00  0.45600000000E+02  0.45600000000E+02  0.00000000000E+00 0.  1.
         11   -1    0    0    0    0 -0.00000000000E+00 -0.00000000000E+00 -0.45600000000E+02  0.45600000000E+02  0.00000000000E+00 0.  1.
        -11    1    1    2    0    0 -0.14695906678E+01  0.23631833707E+01  0.40322818043E+02  0.40418733124E+02  0.00000000000E+00 0.  1.
         11    1    1    2    0    0  0.25531812067E+00  0.88434456403E+00 -0.43853093452E+02  0.43862752512E+02  0.00000000000E+00 0.  1.
        -15    1    1    2    0    0  0.12739412942E+01 -0.92934968461E+00  0.52355698935E-01  0.23763601109E+01  0.17770000000E+01 0.  1.
         15    1    1    2    0    0 -0.59668747129E-01 -0.23181782501E+01  0.34779197095E+01  0.45421542537E+01  0.17770000000E+01 0. -1.
</event>
<event>
 6    1  0.3691007E-002  0.4649426E+02  0.7546771E-02  0.1313782E+00
        -11   -1    0    0    0    0  0.00000000000E+00  0.00000000000E+00  0.45600000000E+02  0.45600000000E+02  0.00000000000E+00 0. -1.
         11   -1    0    0    0    0 -0.00000000000E+00 -0.00000000000E+00 -0.45600000000E+02  0.45600000000E+02  0.00000000000E+00 0.  1.
        -11    1    1    2    0    0 -0.14407688549E+01  0.10506801013E+01  0.44670159314E+02  0.44705736508E+02  0.00000000000E+00 0. -1.
         11    1    1    2    0    0  0.42545301362E+00 -0.33037589180E+00 -0.19676593373E+02  0.19683965181E+02  0.00000000000E+00 0.  1.
        -15    1    1    2    0    0  0.14115129907E+01 -0.43250373831E+01 -0.18740546368E+02  0.19366572347E+02  0.17770000000E+01 0.  1.
         15    1    1    2    0    0 -0.39619714942E+00  0.36047331736E+01 -0.62530195734E+01  0.74437259635E+01  0.17770000000E+01 0. -1.
</event>
<event>
 6    1  0.3691007E-002  0.4597571E+02  0.7546771E-02  0.1316273E+00
        -11   -1    0    0    0    0  0.00000000000E+00  0.00000000000E+00  0.45600000000E+02  0.45600000000E+02  0.00000000000E+00 0. -1.
         11   -1    0    0    0    0 -0.00000000000E+00 -0.00000000000E+00 -0.45600000000E+02  0.45600000000E+02  0.00000000000E+00 0.  1.
        -11    1    1    2    0    0 -0.11384577403E+01 -0.23319446388E+01  0.26111354346E+02  0.26239986235E+02  0.00000000000E+00 0. -1.
         11    1    1    2    0    0  0.90837748183E+00 -0.66101529178E+00 -0.45210332621E+02  0.45224288459E+02  0.00000000000E+00 0.  1.
        -15    1    1    2    0    0 -0.65992990949E+00  0.16815766293E+01  0.11337440157E+02  0.11617163413E+02  0.17770000000E+01 0.  1.
         15    1    1    2    0    0  0.89001016799E+00  0.13113833012E+01  0.77615381181E+01  0.81185618936E+01  0.17770000000E+01 0. -1.
</event>
<event>
 6    1  0.3691007E-002  0.4708152E+02  0.7546771E-02  0.1311005E+00
        -11   -1    0    0    0    0  0.00000000000E+00  0.00000000000E+00  0.45600000000E+02  0.45600000000E+02  0.00000000000E+00 0. -1.
         11   -1    0    0    0    0 -0.00000000000E+00 -0.00000000000E+00 -0.45600000000E+02  0.45600000000E+02  0.00000000000E+00 0. -1.
        -11    1    1    2    0    0  0.71100526576E+00 -0.17498829666E+00  0.36853890334E+02  0.36861163603E+02  0.00000000000E+00 0. -1.
         11    1    1    2    0    0  0.32378221066E+01  0.14290852027E+01 -0.43976297255E+02  0.44118482485E+02  0.00000000000E+00 0. -1.
        -15    1    1    2    0    0  0.27258511255E+00  0.46788974051E+00  0.40148222985E+01  0.44237710769E+01  0.17770000000E+01 0.  1.
         15    1    1    2    0    0 -0.42214124849E+01 -0.17219866465E+01  0.31075846227E+01  0.57965828352E+01  0.17770000000E+01 0.  1.
</event>
<event>
 6    1  0.3691007E-002  0.4629599E+02  0.7546771E-02  0.1314730E+00
        -11   -1    0    0    0    0  0.00000000000E+00  0.00000000000E+00  0.45600000000E+02  0.45600000000E+02  0.00000000000E+00 0.  1.
         11   -1    0    0    0    0 -0.00000000000E+00 -0.00000000000E+00 -0.45600000000E+02  0.45600000000E+02  0.00000000000E+00 0. -1.
        -11    1    1    2    0    0 -0.75774027024E+00  0.16810438960E+00  0.35644747366E+02  0.35653196830E+02  0.00000000000E+00 0.  1.
         11    1    1    2    0    0 -0.51295516856E+00 -0.39724183136E+00 -0.44899318161E+02  0.44904005338E+02  0.00000000000E+00 0. -1.
        -15    1    1    2    0    0 -0.62002132620E+00  0.14590319328E+01  0.40213887824E+01  0.46735957640E+01  0.17770000000E+01 0. -1.
         15    1    1    2    0    0  0.18907167650E+01 -0.12298944910E+01  0.52331820126E+01  0.59692020674E+01  0.17770000000E+01 0.  1.
</event>
<event>
 6    1  0.3691007E-002  0.4683460E+02  0.7546771E-02  0.1312167E+00
        -11   -1    0    0    0    0  0.00000000000E+00  0.00000000000E+00  0.45600000000E+02  0.45600000000E+02  0.00000000000E+00 0.  1.
         11   -1    0    0    0    0 -0.00000000000E+00 -0.00000000000E+00 -0.45600000000E+02  0.45600000000E+02  0.00000000000E+00 0. -1.
        -11    1    1    2    0    0 -0.17137021673E+01 -0.15296671208E+00  0.44332030201E+02  0.44365404040E+02  0.00000000000E+00 0.  1.
         11    1    1    2    0    0 -0.11570362587E+01  0.24341319133E+01 -0.23480875546E+02  0.23635042786E+02  0.00000000000E+00 0. -1.
        -15    1    1    2    0    0  0.36305005538E+00 -0.18708558717E+01 -0.19731575576E+02  0.19902881971E+02  0.17770000000E+01 0. -1.
         15    1    1    2    0    0  0.25076883706E+01 -0.41030932951E+00 -0.11195790786E+01  0.32966712034E+01  0.17770000000E+01 0. -1.
</event>
<event>
 6    1  0.3691007E-002  0.4606578E+02  0.7546771E-02  0.1315838E+00
        -11   -1    0    0    0    0  0.00000000000E+00  0.00000000000E+00  0.45600000000E+02  0.45600000000E+02  0.00000000000E+00 0. -1.
         11   -1    0    0    0    0 -0.00000000000E+00 -0.00000000000E+00 -0.45600000000E+02  0.45600000000E+02  0.00000000000E+00 0. -1.
        -11    1    1    2    0    0  0.61353711096E-01 -0.97148837428E+00  0.19370573509E+02  0.19395016680E+02  0.00000000000E+00 0. -1.
         11    1    1    2    0    0  0.26224633081E+01 -0.32283837482E+01 -0.44942160413E+02  0.45134217153E+02  0.00000000000E+00 0. -1.
        -15    1    1    2    0    0 -0.20789033097E-01  0.10141167748E+01  0.15479601418E+02  0.15614245229E+02  0.17770000000E+01 0. -1.
         15    1    1    2    0    0 -0.26630279861E+01  0.31857553477E+01  0.10091985486E+02  0.11056520937E+02  0.17770000000E+01 0. -1.
</event>
<event>
 6    1  0.3691007E-002  0.3853365E+02  0.7546771E-02  0.1356818E+00
        -11   -1    0    0    0    0  0.00000000000E+00  0.00000000000E+00  0.45600000000E+02  0.45600000000E+02  0.00000000000E+00 0.  1.
         11   -1    0    0    0    0 -0.00000000000E+00 -0.00000000000E+00 -0.45600000000E+02  0.45600000000E+02  0.00000000000E+00 0. -1.
        -11    1    1    2    0    0 -0.17722498028E+00 -0.88239558195E+00  0.38253677001E+02  0.38264263154E+02  0.00000000000E+00 0.  1.
         11    1    1    2    0    0 -0.92952377514E+00 -0.20785064237E+00 -0.38808997874E+02  0.38820684337E+02  0.00000000000E+00 0. -1.
        -15    1    1    2    0    0  0.28126070446E-01 -0.25947696685E+01 -0.57311809002E+01  0.65374141845E+01  0.17770000000E+01 0. -1.
         15    1    1    2    0    0  0.10786226850E+01  0.36850158928E+01  0.62865017738E+01  0.75776383246E+01  0.17770000000E+01 0.  1.
</event>
<event>
 6    1  0.3691007E-002  0.4785726E+02  0.7546771E-02  0.1307408E+00
        -11   -1    0    0    0    0  0.00000000000E+00  0.00000000000E+00  0.45600000000E+02  0.45600000000E+02  0.00000000000E+00 0. -1.
         11   -1    0    0    0    0 -0.00000000000E+00 -0.00000000000E+00 -0.45600000000E+02  0.45600000000E+02  0.00000000000E+00 0. -1.
        -11    1    1    2    0    0 -0.61200019749E+00  0.71350483142E-01  0.43338357896E+02  0.43342737572E+02  0.00000000000E+00 0. -1.
         11    1    1    2    0    0 -0.54161891603E+00  0.69119475137E+00 -0.42372958166E+02  0.42382056167E+02  0.00000000000E+00 0. -1.
        -15    1    1    2    0    0  0.15689464293E+00  0.13008915623E+01 -0.12902823899E+01  0.25572431311E+01  0.17770000000E+01 0. -1.
         15    1    1    2    0    0  0.99672447059E+00 -0.20634367968E+01  0.32488266000E+00  0.29179631299E+01  0.17770000000E+01 0. -1.
</event>
<event>
 6    1  0.3691007E-002  0.4772161E+02  0.7546771E-02  0.1308031E+00
        -11   -1    0    0    0    0  0.00000000000E+00  0.00000000000E+00  0.45600000000E+02  0.45600000000E+02  0.00000000000E+00 0.  1.
         11   -1    0    0    0    0 -0.00000000000E+00 -0.00000000000E+00 -0.45600000000E+02  0.45600000000E+02  0.00000000000E+00 0. -1.
        -11    1    1    2    0    0  0.72146637045E+00  0.11526914640E+01  0.43457122455E+02  0.43478393524E+02  0.00000000000E+00 0.  1.
         11    1    1    2    0    0  0.38204697105E+00 -0.71777444229E+00 -0.41284266625E+02  0.41292273258E+02  0.00000000000E+00 0. -1.
        -15    1    1    2    0    0  0.37635435278E+00  0.19832922733E+01 -0.73893413702E+00  0.27890578156E+01  0.17770000000E+01 0. -1.
         15    1    1    2    0    0 -0.14798676943E+01 -0.24182092950E+01 -0.14339216926E+01  0.36402754027E+01  0.17770000000E+01 0.  1.
</event>
<event>
 6    1  0.3691007E-002  0.4610457E+02  0.7546771E-02  0.1315651E+00
        -11   -1    0    0    0    0  0.00000000000E+00  0.00000000000E+00  0.45600000000E+02  0.45600000000E+02  0.00000000000E+00 0.  1.
         11   -1    0    0    0    0 -0.00000000000E+00 -0.00000000000E+00 -0.45600000000E+02  0.45600000000E+02  0.00000000000E+00 0.  1.
        -11    1    1    2    0    0  0.32984665712E+00 -0.59343232538E+00  0.34061126602E+02  0.34067892599E+02  0.00000000000E+00 0.  1.
         11    1    1    2    0    0  0.66418312891E+00  0.11135493797E-01 -0.45090533277E+02  0.45095426093E+02  0.00000000000E+00 0.  1.
        -15    1    1    2    0    0 -0.31491248472E+00  0.95107489952E+00  0.90095881166E+01  0.92376469065E+01  0.17770000000E+01 0.  1.
         15    1    1    2    0    0 -0.67911730131E+00 -0.36877806794E+00  0.20198185587E+01  0.27990344018E+01  0.17770000000E+01 0. -1.
</event>
<event>
 6    1  0.3691007E-002  0.4625354E+02  0.7546771E-02  0.1314934E+00
        -11   -1    0    0    0    0  0.00000000000E+00  0.00000000000E+00  0.45600000000E+02  0.45600000000E+02  0.00000000000E+00 0. -1.
         11   -1    0    0    0    0 -0.00000000000E+00 -0.00000000000E+00 -0.45600000000E+02  0.45600000000E+02  0.00000000000E+00 0.  1.
        -11    1    1    2    0    0  0.38893580528E+00  0.47447017789E+00  0.21983475008E+02  0.21992034159E+02  0.00000000000E+00 0. -1.
         11    1    1    2    0    0 -0.19849939299E+01 -0.17655472595E+01 -0.44867879114E+02  0.44946456303E+02  0.00000000000E+00 0.  1.
        -15    1    1    2    0    0  0.20812993753E+01  0.19018348283E+01  0.21770037930E+02  0.22023647819E+02  0.17770000000E+01 0. -1.
         15    1    1    2    0    0 -0.48524125075E+00 -0.61075774664E+00  0.11143661763E+01  0.22378617185E+01  0.17770000000E+01 0.  1.
</event>
<event>
 6    1  0.3691007E-002  0.5629166E+02  0.7546771E-02  0.1272743E+00
        -11   -1    0    0    0    0  0.00000000000E+00  0.00000000000E+00  0.45600000000E+02  0.45600000000E+02  0.00000000000E+00 0. -1.
         11   -1    0    0    0    0 -0.00000000000E+00 -0.00000000000E+00 -0.45600000000E+02  0.45600000000E+02  0.00000000000E+00 0. -1.
        -11    1    1    2    0    0 -0.46898060827E+01  0.36811828789E+01  0.34395449388E+02  0.34908341797E+02  0.00000000000E+00 0. -1.
         11    1    1    2    0    0  0.46513480021E+00 -0.12040178053E+01 -0.29955429895E+02  0.29983225134E+02  0.00000000000E+00 0. -1.
        -15    1    1    2    0    0  0.62654927586E+01 -0.58177406333E+01  0.87941871184E+01  0.12393464474E+02  0.17770000000E+01 0. -1.
         15    1    1    2    0    0 -0.20408214762E+01  0.33405755598E+01 -0.13234206611E+02  0.13914968595E+02  0.17770000000E+01 0.  1.
</event>
<event>
 6    1  0.3691007E-002  0.5113501E+02  0.7546771E-02  0.1293030E+00
        -11   -1    0    0    0    0  0.00000000000E+00  0.00000000000E+00  0.45600000000E+02  0.45600000000E+02  0.00000000000E+00 0.  1.
         11   -1    0    0    0    0 -0.00000000000E+00 -0.00000000000E+00 -0.45600000000E+02  0.45600000000E+02  0.00000000000E+00 0. -1.
        -11    1    1    2    0    0 -0.44411220644E+01 -0.23164286277E+01  0.39750650395E+02  0.40064992370E+02  0.00000000000E+00 0.  1.
         11    1    1    2    0    0 -0.16397570630E+01 -0.19539159514E+00 -0.27476732559E+02  0.27526311290E+02  0.00000000000E+00 0. -1.
        -15    1    1    2    0    0 -0.41999844779E+01 -0.45108100433E+01 -0.58866602303E+00  0.64413922057E+01  0.17770000000E+01 0.  1.
         15    1    1    2    0    0  0.10280863605E+02  0.70226302661E+01 -0.11685251813E+02  0.17167304135E+02  0.17770000000E+01 0. -1.
</event>
<event>
 6    1  0.3691007E-002  0.4587197E+02  0.7546771E-02  0.1316776E+00
        -11   -1    0    0    0    0  0.00000000000E+00  0.00000000000E+00  0.45600000000E+02  0.45600000000E+02  0.00000000000E+00 0. -1.
         11   -1    0    0    0    0 -0.00000000000E+00 -0.00000000000E+00 -0.45600000000E+02  0.45600000000E+02  0.00000000000E+00 0.  1.
        -11    1    1    2    0    0 -0.13386234631E+01 -0.21681612294E+01  0.45256355878E+02  0.45328033083E+02  0.00000000000E+00 0. -1.
         11    1    1    2    0    0  0.14316926413E+01  0.96881713086E+00 -0.16225878494E+02  0.16317704598E+02  0.00000000000E+00 0.  1.
        -15    1    1    2    0    0 -0.12961425832E+01 -0.10359890628E+01 -0.13630053740E+02  0.13845192411E+02  0.17770000000E+01 0. -1.
         15    1    1    2    0    0  0.12030734049E+01  0.22353331613E+01 -0.15400423644E+02  0.15709069908E+02  0.17770000000E+01 0.  1.
</event>
<event>
 6    1  0.3691007E-002  0.4865696E+02  0.7546771E-02  0.1303780E+00
        -11   -1    0    0    0    0  0.00000000000E+00  0.00000000000E+00  0.45600000000E+02  0.45600000000E+02  0.00000000000E+00 0. -1.
         11   -1    0    0    0    0 -0.00000000000E+00 -0.00000000000E+00 -0.45600000000E+02  0.45600000000E+02  0.00000000000E+00 0.  1.
        -11    1    1    2    0    0  0.11380903507E+02 -0.71923973546E+01  0.40356589277E+02  0.42543035181E+02  0.00000000000E+00 0. -1.
         11    1    1    2    0    0 -0.15795508564E-01  0.54744469373E+00 -0.15692649036E+02  0.15702202997E+02  0.00000000000E+00 0.  1.
        -15    1    1    2    0    0  0.17990788362E+01 -0.14745614075E+01 -0.13457960178E+02  0.13772633632E+02  0.17770000000E+01 0.  1.
         15    1    1    2    0    0 -0.13164186835E+02  0.81195140683E+01 -0.11205980063E+02  0.19182128190E+02  0.17770000000E+01 0.  1.
</event>
<event>
 6    1  0.3691007E-002  0.4843444E+02  0.7546771E-02  0.1304781E+00
        -11   -1    0    0    0    0  0.00000000000E+00  0.00000000000E+00  0.45600000000E+02  0.45600000000E+02  0.00000000000E+00 0. -1.
         11   -1    0    0    0    0 -0.00000000000E+00 -0.00000000000E+00 -0.45600000000E+02  0.45600000000E+02  0.00000000000E+00 0.  1.
        -11    1    1    2    0    0 -0.63521943591E+01 -0.16184491916E+01  0.42260189570E+02  0.42765562938E+02  0.00000000000E+00 0. -1.
         11    1    1    2    0    0  0.73676086822E+00  0.16775164601E-01 -0.36147680565E+02  0.36155191996E+02  0.00000000000E+00 0.  1.
        -15    1    1    2    0    0  0.73429214506E+01  0.48561500375E+00 -0.58130028164E+01  0.95447916743E+01  0.17770000000E+01 0.  1.
         15    1    1    2    0    0 -0.17274879598E+01  0.11160590232E+01 -0.29950618803E+00  0.27344533917E+01  0.17770000000E+01 0. -1.
</event>
<event>
 6    1  0.3691007E-002  0.4697234E+02  0.7546771E-02  0.1311518E+00
        -11   -1    0    0    0    0  0.00000000000E+00  0.00000000000E+00  0.45600000000E+02  0.45600000000E+02  0.00000000000E+00 0. -1.
         11   -1    0    0    0    0 -0.00000000000E+00 -0.00000000000E+00 -0.45600000000E+02  0.45600000000E+02  0.00000000000E+00 0.  1.
        -11    1    1    2    0    0  0.23999934065E+00 -0.82321757585E+00  0.44219341939E+02  0.44227655244E+02  0.00000000000E+00 0. -1.
         11    1    1    2    0    0  0.14570105217E+01 -0.11596408794E+01 -0.39879146345E+02  0.39922599612E+02  0.00000000000E+00 0.  1.
        -15    1    1    2    0    0 -0.34378347871E+00  0.18174640250E+01 -0.40463661660E+01  0.47908423802E+01  0.17770000000E+01 0.  1.
         15    1    1    2    0    0 -0.13532263836E+01  0.16539443025E+00 -0.29382942806E+00  0.22589027637E+01  0.17770000000E+01 0. -1.
</event>
<event>
 6    1  0.3691007E-002  0.4700352E+02  0.7546771E-02  0.1311371E+00
        -11   -1    0    0    0    0  0.00000000000E+00  0.00000000000E+00  0.45600000000E+02  0.45600000000E+02  0.00000000000E+00 0.  1.
         11   -1    0    0    0    0 -0.00000000000E+00 -0.00000000000E+00 -0.45600000000E+02  0.45600000000E+02  0.00000000000E+00 0. -1.
        -11    1    1    2    0    0  0.84250773436E+00  0.53159308316E-01  0.35204243315E+02  0.35214363441E+02  0.00000000000E+00 0.  1.
         11    1    1    2    0    0  0.73584582214E+00  0.15284196085E+01 -0.44163914206E+02  0.44196480104E+02  0.00000000000E+00 0. -1.
        -15    1    1    2    0    0 -0.36064048402E+01  0.56108722684E+00  0.36426361879E+01  0.54541270745E+01  0.17770000000E+01 0. -1.
         15    1    1    2    0    0  0.20280512837E+01 -0.21426661437E+01  0.53170347034E+01  0.63350293803E+01  0.17770000000E+01 0.  1.
</event>
<event>
 6    1  0.3691007E-002  0.4621008E+02  0.7546771E-02  0.1315143E+00
        -11   -1    0    0    0    0  0.00000000000E+00  0.00000000000E+00  0.45600000000E+02  0.45600000000E+02  0.00000000000E+00 0.  1.
         11   -1    0    0    0    0 -0.00000000000E+00 -0.00000000000E+00 -0.45600000000E+02  0.45600000000E+02  0.00000000000E+00 0. -1.
        -11    1    1    2    0    0 -0.26534102540E+01  0.26081497730E+01  0.44835813749E+02  0.44989923603E+02  0.00000000000E+00 0.  1.
         11    1    1    2    0    0 -0.46451337899E+00 -0.27396510193E+01 -0.45835089544E+01  0.53600386867E+01  0.00000000000E+00 0. -1.
        -15    1    1    2    0    0  0.23419435828E+01  0.10439030602E+00 -0.36571686610E+02  0.36689802228E+02  0.17770000000E+01 0. -1.
         15    1    1    2    0    0  0.77598005021E+00  0.27110940287E-01 -0.36806181852E+01  0.41602354821E+01  0.17770000000E+01 0. -1.
</event>
<event>
 6    1  0.3691007E-002  0.4665007E+02  0.7546771E-02  0.1313041E+00
        -11   -1    0    0    0    0  0.00000000000E+00  0.00000000000E+00  0.45600000000E+02  0.45600000000E+02  0.00000000000E+00 0. -1.
         11   -1    0    0    0    0 -0.00000000000E+00 -0.00000000000E+00 -0.45600000000E+02  0.45600000000E+02  0.00000000000E+00 0.  1.
        -11    1    1    2    0    0 -0.19155035534E+01  0.18784404656E+01  0.44469074381E+02  0.44549930065E+02  0.00000000000E+00 0. -1.
         11    1    1    2    0    0  0.82560564063E+00 -0.14801915447E+00 -0.15215280566E+02  0.15238382363E+02  0.00000000000E+00 0.  1.
        -15    1    1    2    0    0  0.38986329902E+01 -0.43182142445E+01 -0.10019377538E+02  0.11721432025E+02  0.17770000000E+01 0.  1.
         15    1    1    2    0    0 -0.28087350774E+01  0.25877929334E+01 -0.19234416277E+02  0.19690255547E+02  0.17770000000E+01 0. -1.
</event>
<event>
 6    1  0.3691007E-002  0.4634037E+02  0.7546771E-02  0.1314517E+00
        -11   -1    0    0    0    0  0.00000000000E+00  0.00000000000E+00  0.45600000000E+02  0.45600000000E+02  0.00000000000E+00 0. -1.
         11   -1    0    0    0    0 -0.00000000000E+00 -0.00000000000E+00 -0.45600000000E+02  0.45600000000E+02  0.00000000000E+00 0.  1.
        -11    1    1    2    0    0 -0.13334849901E+01  0.83713496795E-01  0.44839729034E+02  0.44859630962E+02  0.00000000000E+00 0. -1.
         11    1    1    2    0    0  0.53540968389E+00 -0.57336585149E+00 -0.15075722951E+02  0.15096119847E+02  0.00000000000E+00 0.  1.
        -15    1    1    2    0    0 -0.20394050294E+01 -0.26241156095E+00 -0.26035911604E+02  0.26177365313E+02  0.17770000000E+01 0.  1.
         15    1    1    2    0    0  0.28374803357E+01  0.75206391565E+00 -0.37280944788E+01  0.50668838778E+01  0.17770000000E+01 0.  1.
</event>
<event>
 6    1  0.3691007E-002  0.4808915E+02  0.7546771E-02  0.1306347E+00
        -11   -1    0    0    0    0  0.00000000000E+00  0.00000000000E+00  0.45600000000E+02  0.45600000000E+02  0.00000000000E+00 0. -1.
         11   -1    0    0    0    0 -0.00000000000E+00 -0.00000000000E+00 -0.45600000000E+02  0.45600000000E+02  0.00000000000E+00 0.  1.
        -11    1    1    2    0    0 -0.62588255728E+00  0.11151957115E+01  0.43091875089E+02  0.43110846537E+02  0.00000000000E+00 0. -1.
         11    1    1    2    0    0 -0.49134158275E+01  0.30059636642E+01 -0.28493093511E+02  0.29069465948E+02  0.00000000000E+00 0.  1.
        -15    1    1    2    0    0  0.27143753514E+01 -0.17466935691E+01 -0.14459376524E+02  0.14921463415E+02  0.17770000000E+01 0. -1.
         15    1    1    2    0    0  0.28249230333E+01 -0.23744658066E+01 -0.13940505292E+00  0.40982241007E+01  0.17770000000E+01 0.  1.
</event>
<event>
 6    1  0.3691007E-002  0.4745720E+02  0.7546771E-02  0.1309253E+00
        -11   -1    0    0    0    0  0.00000000000E+00  0.00000000000E+00  0.45600000000E+02  0.45600000000E+02  0.00000000000E+00 0.  1.
         11   -1    0    0    0    0 -0.00000000000E+00 -0.00000000000E+00 -0.45600000000E+02  0.45600000000E+02  0.00000000000E+00 0. -1.
        -11    1    1    2    0    0  0.57260209045E+00 -0.20935142110E+01  0.41516037097E+02  0.41572731582E+02  0.00000000000E+00 0.  1.
         11    1    1    2    0    0 -0.72703990145E+00 -0.11620164885E+01 -0.43721320477E+02  0.43742802078E+02  0.00000000000E+00 0. -1.
        -15    1    1    2    0    0  0.31952384183E-01  0.52370342233E+00  0.18257519713E+01  0.26012276890E+01  0.17770000000E+01 0.  1.
         15    1    1    2    0    0  0.12248542681E+00  0.27318272772E+01  0.37953140878E+00  0.32832386514E+01  0.17770000000E+01 0. -1.
</event>
<event>
 6    1  0.3691007E-002  0.4635708E+02  0.7546771E-02  0.1314437E+00
        -11   -1    0    0    0    0  0.00000000000E+00  0.00000000000E+00  0.45600000000E+02  0.45600000000E+02  0.00000000000E+00 0.  1.
         11   -1    0    0    0    0 -0.00000000000E+00 -0.00000000000E+00 -0.45600000000E+02  0.45600000000E+02  0.00000000000E+00 0.  1.
        -11    1    1    2    0    0 -0.82218080538E+00 -0.45712417674E+00  0.37951108316E+02  0.37962765524E+02  0.00000000000E+00 0.  1.
         11    1    1    2    0    0  0.16986384127E+01 -0.52945391008E+00 -0.44807608674E+02  0.44842920165E+02  0.00000000000E+00 0.  1.
        -15    1    1    2    0    0 -0.10356360163E+01 -0.48300789829E+00  0.15940691123E+01  0.26466250061E+01  0.17770000000E+01 0. -1.
         15    1    1    2    0    0  0.15917840900E+00  0.14695859851E+01  0.52624312455E+01  0.57476893050E+01  0.17770000000E+01 0.  1.
</event>
<event>
 6    1  0.3691007E-002  0.3521746E+02  0.7546771E-02  0.1378482E+00
        -11   -1    0    0    0    0  0.00000000000E+00  0.00000000000E+00  0.45600000000E+02  0.45600000000E+02  0.00000000000E+00 0. -1.
         11   -1    0    0    0    0 -0.00000000000E+00 -0.00000000000E+00 -0.45600000000E+02  0.45600000000E+02  0.00000000000E+00 0.  1.
        -11    1    1    2    0    0  0.42503175292E+01 -0.65576209471E+01  0.33043522421E+02  0.33954999125E+02  0.00000000000E+00 0. -1.
         11    1    1    2    0    0 -0.74584391913E+00  0.38964692811E+00 -0.36933466374E+02  0.36943051393E+02  0.00000000000E+00 0.  1.
        -15    1    1    2    0    0 -0.24558964618E+01  0.91964873357E+01 -0.48462902260E+01  0.10828253077E+02  0.17770000000E+01 0.  1.
         15    1    1    2    0    0 -0.10485771483E+01 -0.30285133167E+01  0.87362341785E+01  0.94736964046E+01  0.17770000000E+01 0. -1.
</event>
<event>
 6    1  0.3691007E-002  0.4739376E+02  0.7546771E-02  0.1309547E+00
        -11   -1    0    0    0    0  0.00000000000E+00  0.00000000000E+00  0.45600000000E+02  0.45600000000E+02  0.00000000000E+00 0.  1.
         11   -1    0    0    0    0 -0.00000000000E+00 -0.00000000000E+00 -0.45600000000E+02  0.45600000000E+02  0.00000000000E+00 0. -1.
        -11    1    1    2    0    0  0.78581388548E+00  0.80074271157E+00  0.43791869608E+02  0.43806238552E+02  0.00000000000E+00 0.  1.
         11    1    1    2    0    0 -0.57451503733E+00  0.95805866582E-01 -0.38956975903E+02  0.38961329775E+02  0.00000000000E+00 0. -1.
        -15    1    1    2    0    0  0.13840596598E+01 -0.11897152315E+01 -0.53914232905E+01  0.59629034515E+01  0.17770000000E+01 0. -1.
         15    1    1    2    0    0 -0.15953585080E+01  0.29316665340E+00  0.55652958624E+00  0.24695282213E+01  0.17770000000E+01 0.  1.
</event>
<event>
 6    1  0.3691007E-002  0.4613269E+02  0.7546771E-02  0.1315515E+00
        -11   -1    0    0    0    0  0.00000000000E+00  0.00000000000E+00  0.45600000000E+02  0.45600000000E+02  0.00000000000E+00 0.  1.
         11   -1    0    0    0    0 -0.00000000000E+00 -0.00000000000E+00 -0.45600000000E+02  0.45600000000E+02  0.00000000000E+00 0.  1.
        -11    1    1    2    0    0  0.33089200995E+00  0.39944442081E+00  0.25733973065E+02  0.25739199970E+02  0.00000000000E+00 0.  1.
         11    1    1    2    0    0 -0.76228132248E+00 -0.23629587931E+01 -0.44998868447E+02  0.45067314193E+02  0.00000000000E+00 0.  1.
        -15    1    1    2    0    0  0.16857130305E+01  0.20850444134E+01  0.16794441377E+02  0.17099708442E+02  0.17770000000E+01 0.  1.
         15    1    1    2    0    0 -0.12543237180E+01 -0.12153004115E+00  0.24704540043E+01  0.32937773950E+01  0.17770000000E+01 0.  1.
</event>
<event>
 6    1  0.3691007E-002  0.3551108E+02  0.7546771E-02  0.1376453E+00
        -11   -1    0    0    0    0  0.00000000000E+00  0.00000000000E+00  0.45600000000E+02  0.45600000000E+02  0.00000000000E+00 0. -1.
         11   -1    0    0    0    0 -0.00000000000E+00 -0.00000000000E+00 -0.45600000000E+02  0.45600000000E+02  0.00000000000E+00 0. -1.
        -11    1    1    2    0    0  0.36425708998E+00  0.29920150712E+01  0.35777194644E+02  0.35903934241E+02  0.00000000000E+00 0. -1.
         11    1    1    2    0    0  0.75630775283E-01  0.58799919971E+00 -0.35207057615E+02  0.35212048634E+02  0.00000000000E+00 0. -1.
        -15    1    1    2    0    0  0.30887310068E+01  0.17482943454E+01 -0.87170704647E+01  0.95781960116E+01  0.17770000000E+01 0.  1.
         15    1    1    2    0    0 -0.35286188720E+01 -0.53283086163E+01  0.81469334361E+01  0.10505821113E+02  0.17770000000E+01 0. -1.
</event>
<event>
 6    1  0.3691007E-002  0.3212269E+02  0.7546771E-02  0.1401372E+00
        -11   -1    0    0    0    0  0.00000000000E+00  0.00000000000E+00  0.45600000000E+02  0.45600000000E+02  0.00000000000E+00 0. -1.
         11   -1    0    0    0    0 -0.00000000000E+00 -0.00000000000E+00 -0.45600000000E+02  0.45600000000E+02  0.00000000000E+00 0. -1.
        -11    1    1    2    0    0  0.27065228411E+01  0.10821204758E+01  0.31318023540E+02  0.31453375798E+02  0.00000000000E+00 0. -1.
         11    1    1    2    0    0 -0.21647948642E+01 -0.55954515076E+01 -0.32411288691E+02  0.32961902995E+02  0.00000000000E+00 0. -1.
        -15    1    1    2    0    0 -0.32822885582E+01 -0.43811642955E+01  0.11408525415E+02  0.12778114098E+02  0.17770000000E+01 0.  1.
         15    1    1    2    0    0  0.27405605813E+01  0.88944953273E+01 -0.10315260263E+02  0.14006607110E+02  0.17770000000E+01 0. -1.
</event>
<event>
 6    1  0.3691007E-002  0.5289112E+02  0.7546771E-02  0.1285825E+00
        -11   -1    0    0    0    0  0.00000000000E+00  0.00000000000E+00  0.45600000000E+02  0.45600000000E+02  0.00000000000E+00 0.  1.
         11   -1    0    0    0    0 -0.00000000000E+00 -0.00000000000E+00 -0.45600000000E+02  0.45600000000E+02  0.00000000000E+00 0. -1.
        -11    1    1    2    0    0  0.18210046952E+01  0.78886658929E+00  0.18595374204E+02  0.18700970841E+02  0.00000000000E+00 0.  1.
         11    1    1    2    0    0  0.35903279054E+01  0.20919241226E+01 -0.38082854292E+02  0.38308881373E+02  0.00000000000E+00 0. -1.
        -15    1    1    2    0    0 -0.21045745941E+01  0.13212294298E+01 -0.67210472195E+01  0.73827560000E+01  0.17770000000E+01 0. -1.
         15    1    1    2    0    0 -0.33067580064E+01 -0.42020201417E+01  0.26208527307E+02  0.26807391786E+02  0.17770000000E+01 0.  1.
</event>
<event>
 6    1  0.3691007E-002  0.5011280E+02  0.7546771E-02  0.1297378E+00
        -11   -1    0    0    0    0  0.00000000000E+00  0.00000000000E+00  0.45600000000E+02  0.45600000000E+02  0.00000000000E+00 0. -1.
         11   -1    0    0    0    0 -0.00000000000E+00 -0.00000000000E+00 -0.45600000000E+02  0.45600000000E+02  0.00000000000E+00 0. -1.
        -11    1    1    2    0    0 -0.14036800765E+01 -0.57423660737E+01  0.40659716226E+02  0.41087195201E+02  0.00000000000E+00 0. -1.
         11    1    1    2    0    0 -0.24601529631E+01  0.14589063931E+01 -0.30301046842E+02  0.30435738864E+02  0.00000000000E+00 0. -1.
        -15    1    1    2    0    0  0.23343198791E+01  0.27605447600E-01 -0.13549881702E+02  0.13863867949E+02  0.17770000000E+01 0. -1.
         15    1    1    2    0    0  0.15295131605E+01  0.42558542331E+01  0.31912123182E+01  0.58131979857E+01  0.17770000000E+01 0. -1.
</event>
<event>
 6    1  0.3691007E-002  0.4673409E+02  0.7546771E-02  0.1312642E+00
        -11   -1    0    0    0    0  0.00000000000E+00  0.00000000000E+00  0.45600000000E+02  0.45600000000E+02  0.00000000000E+00 0. -1.
         11   -1    0    0    0    0 -0.00000000000E+00 -0.00000000000E+00 -0.45600000000E+02  0.45600000000E+02  0.00000000000E+00 0.  1.
        -11    1    1    2    0    0  0.28018030280E-01 -0.74661930431E+00  0.44459629754E+02  0.44465907202E+02  0.00000000000E+00 0. -1.
         11    1    1    2    0    0  0.87985879390E+00 -0.12995083168E+00 -0.22583023979E+02  0.22600531205E+02  0.00000000000E+00 0.  1.
        -15    1    1    2    0    0 -0.24793832702E+00  0.14899723252E+01 -0.22013314799E+02  0.22136513917E+02  0.17770000000E+01 0.  1.
         15    1    1    2    0    0 -0.65993849716E+00 -0.61340218923E+00  0.13670902359E+00  0.19970476767E+01  0.17770000000E+01 0.  1.
</event>
<event>
 6    1  0.3691007E-002  0.4785360E+02  0.7546771E-02  0.1307424E+00
        -11   -1    0    0    0    0  0.00000000000E+00  0.00000000000E+00  0.45600000000E+02  0.45600000000E+02  0.00000000000E+00 0.  1.
         11   -1    0    0    0    0 -0.00000000000E+00 -0.00000000000E+00 -0.45600000000E+02  0.45600000000E+02  0.00000000000E+00 0. -1.
        -11    1    1    2    0    0 -0.97234433827E+01 -0.68226656195E+01  0.41687126605E+02  0.43346402873E+02  0.00000000000E+00 0.  1.
         11    1    1    2    0    0  0.74144841504E+00 -0.61222251106E+00 -0.17125272783E+02  0.17152245627E+02  0.00000000000E+00 0. -1.
        -15    1    1    2    0    0  0.99394822002E+01  0.97777787313E+01 -0.23589751418E+02  0.27459649748E+02  0.17770000000E+01 0. -1.
         15    1    1    2    0    0 -0.95748723255E+00 -0.23428906007E+01 -0.97210240454E+00  0.32417017525E+01  0.17770000000E+01 0.  1.
</event>
<event>
 6    1  0.3691007E-002  0.3897318E+02  0.7546771E-02  0.1354136E+00
        -11   -1    0    0    0    0  0.00000000000E+00  0.00000000000E+00  0.45600000000E+02  0.45600000000E+02  0.00000000000E+00 0.  1.
         11   -1    0    0    0    0 -0.00000000000E+00 -0.00000000000E+00 -0.45600000000E+02  0.45600000000E+02  0.00000000000E+00 0. -1.
        -11    1    1    2    0    0  0.41080559964E+00  0.16732537626E+01  0.39773921752E+02  0.39811221922E+02  0.00000000000E+00 0.  1.
         11    1    1    2    0    0 -0.95017837878E+00  0.14440528172E+01 -0.38176554416E+02  0.38215670013E+02  0.00000000000E+00 0. -1.
        -15    1    1    2    0    0  0.32207894843E+01 -0.84570127176E+00  0.45256551070E+01  0.58930449422E+01  0.17770000000E+01 0.  1.
         15    1    1    2    0    0 -0.26814167051E+01 -0.22716053080E+01 -0.61230224432E+01  0.72800631221E+01  0.17770000000E+01 0. -1.
</event>
<event>
 6    1  0.3691007E-002  0.4880127E+02  0.7546771E-02  0.1303134E+00
        -11   -1    0    0    0    0  0.00000000000E+00  0.00000000000E+00  0.45600000000E+02  0.45600000000E+02  0.00000000000E+00 0.  1.
         11   -1    0    0    0    0 -0.00000000000E+00 -0.00000000000E+00 -0.45600000000E+02  0.45600000000E+02  0.00000000000E+00 0. -1.
        -11    1    1    2    0    0 -0.86083033039E+00 -0.32032812993E+00  0.37827982465E+02  0.37839131813E+02  0.00000000000E+00 0.  1.
         11    1    1    2    0    0 -0.86307861214E+00 -0.19404307333E+01 -0.42345508941E+02  0.42398729976E+02  0.00000000000E+00 0. -1.
        -15    1    1    2    0    0 -0.67755906107E+00  0.81803388293E+00 -0.24724961789E+01  0.32247840345E+01  0.17770000000E+01 0.  1.
         15    1    1    2    0    0  0.24014680036E+01  0.14427249803E+01  0.69900226550E+01  0.77373541769E+01  0.17770000000E+01 0. -1.
</event>
<event>
 6    1  0.3691007E-002  0.4714327E+02  0.7546771E-02  0.1310716E+00
        -11   -1    0    0    0    0  0.00000000000E+00  0.00000000000E+00  0.45600000000E+02  0.45600000000E+02  0.00000000000E+00 0.  1.
         11   -1    0    0    0    0 -0.00000000000E+00 -0.00000000000E+00 -0.45600000000E+02  0.45600000000E+02  0.00000000000E+00 0.  1.
        -11    1    1    2    0    0  0.80290037854E-01 -0.71012926674E+00  0.44050935965E+02  0.44056732623E+02  0.00000000000E+00 0.  1.
         11    1    1    2    0    0  0.32404351379E+01  0.14010711066E+01 -0.22518644865E+02  0.22793700593E+02  0.00000000000E+00 0.  1.
        -15    1    1    2    0    0 -0.57697792140E+01 -0.71933834510E+00 -0.60602967082E+01  0.85844466930E+01  0.17770000000E+01 0. -1.
         15    1    1    2    0    0  0.24490540382E+01  0.28396505202E-01 -0.15471994391E+02  0.15765120091E+02  0.17770000000E+01 0.  1.
</event>
<event>
 6    1  0.3691007E-002  0.4589099E+02  0.7546771E-02  0.1316684E+00
        -11   -1    0    0    0    0  0.00000000000E+00  0.00000000000E+00  0.45600000000E+02  0.45600000000E+02  0.00000000000E+00 0.  1.
         11   -1    0    0    0    0 -0.00000000000E+00 -0.00000000000E+00 -0.45600000000E+02  0.45600000000E+02  0.00000000000E+00 0.  1.
        -11    1    1    2    0    0 -0.11047405798E+01 -0.94232331008E+00  0.24621365021E+02  0.24664144835E+02  0.00000000000E+00 0.  1.
         11    1    1    2    0    0 -0.69834523874E+00  0.10474153284E+01 -0.45291516349E+02  0.45309008135E+02  0.00000000000E+00 0.  1.
        -15    1    1    2    0    0  0.19637289551E+01 -0.76435946887E+00  0.14852557033E+02  0.15106179406E+02  0.17770000000E+01 0.  1.
         15    1    1    2    0    0 -0.16064313665E+00  0.65926745060E+00  0.58175942948E+01  0.61206676243E+01  0.17770000000E+01 0.  1.
</event>
<event>
 6    1  0.3691007E-002  0.4654088E+02  0.7546771E-02  0.1313560E+00
        -11   -1    0    0    0    0  0.00000000000E+00  0.00000000000E+00  0.45600000000E+02  0.45600000000E+02  0.00000000000E+00 0. -1.
         11   -1    0    0    0    0 -0.00000000000E+00 -0.00000000000E+00 -0.45600000000E+02  0.45600000000E+02  0.00000000000E+00 0.  1.
        -11    1    1    2    0    0  0.15024485350E+01  0.24138333873E+00  0.44633190965E+02  0.44659123964E+02  0.00000000000E+00 0. -1.
         11    1    1    2    0    0  0.15499904073E+01 -0.14905071917E+01 -0.36432719764E+02  0.36496125155E+02  0.00000000000E+00 0.  1.
        -15    1    1    2    0    0 -0.12522560673E+01  0.19836458911E+01 -0.56900958980E+01  0.64060843428E+01  0.17770000000E+01 0. -1.
         15    1    1    2    0    0 -0.18001828749E+01 -0.73452203816E+00 -0.25103753036E+01  0.36386665377E+01  0.17770000000E+01 0. -1.
</event>
<event>
 6    1  0.3691007E-002  0.4627975E+02  0.7546771E-02  0.1314808E+00
        -11   -1    0    0    0    0  0.00000000000E+00  0.00000000000E+00  0.45600000000E+02  0.45600000000E+02  0.00000000000E+00 0. -1.
         11   -1    0    0    0    0 -0.00000000000E+00 -0.00000000000E+00 -0.45600000000E+02  0.45600000000E+02  0.00000000000E+00 0. -1.
        -11    1    1    2    0    0  0.24174033022E+01 -0.23032847620E+00  0.44854560569E+02  0.44920245923E+02  0.00000000000E+00 0. -1.
         11    1    1    2    0    0  0.28907674651E+00 -0.47860375407E+00 -0.25756695348E+02  0.25762763481E+02  0.00000000000E+00 0. -1.
        -15    1    1    2    0    0 -0.11102801690E+01  0.26182034067E+01 -0.45559725104E+01  0.56570598060E+01  0.17770000000E+01 0. -1.
         15    1    1    2    0    0 -0.15961998797E+01 -0.19092711765E+01 -0.14541892711E+02  0.14859930790E+02  0.17770000000E+01 0.  1.
</event>
<event>
 6    1  0.3691007E-002  0.4673115E+02  0.7546771E-02  0.1312656E+00
        -11   -1    0    0    0    0  0.00000000000E+00  0.00000000000E+00  0.45600000000E+02  0.45600000000E+02  0.00000000000E+00 0.  1.
         11   -1    0    0    0    0 -0.00000000000E+00 -0.00000000000E+00 -0.45600000000E+02  0.45600000000E+02  0.00000000000E+00 0. -1.
        -11    1    1    2    0    0 -0.31497731762E+00  0.62736308791E+00  0.36325125998E+02  0.36331908482E+02  0.00000000000E+00 0.  1.
         11    1    1    2    0    0  0.23625675076E+01 -0.77403370356E+00 -0.44399294414E+02  0.44468845250E+02  0.00000000000E+00 0. -1.
        -15    1    1    2    0    0 -0.36939425463E+01 -0.12459339316E+00  0.54014575955E+01  0.67819029928E+01  0.17770000000E+01 0. -1.
         15    1    1    2    0    0  0.16463523563E+01  0.27126400882E+00  0.26727108201E+01  0.36173432753E+01  0.17770000000E+01 0.  1.
</event>
<event>
 6    1  0.3691007E-002  0.4696873E+02  0.7546771E-02  0.1311535E+00
        -11   -1    0    0    0    0  0.00000000000E+00  0.00000000000E+00  0.45600000000E+02  0.45600000000E+02  0.00000000000E+00 0. -1.
         11   -1    0    0    0    0 -0.00000000000E+00 -0.00000000000E+00 -0.45600000000E+02  0.45600000000E+02  0.00000000000E+00 0.  1.
        -11    1    1    2    0    0  0.37689330056E+00 -0.48027724949E+00  0.42674708187E+02  0.42679074892E+02  0.00000000000E+00 0. -1.
         11    1    1    2    0    0  0.59987923318E+00 -0.30259345353E-01 -0.44227187943E+02  0.44231266363E+02  0.00000000000E+00 0.  1.
        -15    1    1    2    0    0  0.70647047415E-01  0.72261421271E+00  0.63229201962E+00  0.20210602425E+01  0.17770000000E+01 0. -1.
         15    1    1    2    0    0 -0.10474195812E+01 -0.21207761786E+00  0.92018773651E+00  0.22685985025E+01  0.17770000000E+01 0. -1.
</event>
<event>
 6    1  0.3691007E-002  0.4627293E+02  0.7546771E-02  0.1314841E+00
        -11   -1    0    0    0    0  0.00000000000E+00  0.00000000000E+00  0.45600000000E+02  0.45600000000E+02  0.00000000000E+00 0. -1.
         11   -1    0    0    0    0 -0.00000000000E+00 -0.00000000000E+00 -0.45600000000E+02  0.45600000000E+02  0.00000000000E+00 0. -1.
        -11    1    1    2    0    0 -0.26181936151E+00  0.90515057874E+00  0.23637473797E+02  0.23656246837E+02  0.00000000000E+00 0. -1.
         11    1    1    2    0    0 -0.18063847329E+01 -0.66850299693E+00 -0.44885764325E+02  0.44927071584E+02  0.00000000000E+00 0. -1.
        -15    1    1    2    0    0  0.56986691049E+00 -0.69266534302E-01  0.19767721053E+02  0.19855731434E+02  0.17770000000E+01 0. -1.
         15    1    1    2    0    0  0.14983371839E+01 -0.16738104751E+00  0.14805694756E+01  0.27609501451E+01  0.17770000000E+01 0.  1.
</event>
<event>
 6    1  0.3691007E-002  0.5033083E+02  0.7546771E-02  0.1296440E+00
        -11   -1    0    0    0    0  0.00000000000E+00  0.00000000000E+00  0.45600000000E+02  0.45600000000E+02  0.00000000000E+00 0.  1.
         11   -1    0    0    0    0 -0.00000000000E+00 -0.00000000000E+00 -0.45600000000E+02  0.45600000000E+02  0.00000000000E+00 0.  1.
        -11    1    1    2    0    0  0.65987215013E+01  0.15105618608E+00  0.40332653957E+02  0.40869168314E+02  0.00000000000E+00 0.  1.
         11    1    1    2    0    0 -0.73524415780E+01 -0.34708926378E+01 -0.35921093163E+02  0.36829749210E+02  0.00000000000E+00 0.  1.
        -15    1    1    2    0    0  0.26157551706E+01  0.29470971733E+01 -0.79858776417E+01  0.90807228550E+01  0.17770000000E+01 0.  1.
         15    1    1    2    0    0 -0.18620350939E+01  0.37273927843E+00  0.35743168471E+01  0.44203596216E+01  0.17770000000E+01 0.  1.
</event>
<event>
 6    1  0.3691007E-002  0.4627271E+02  0.7546771E-02  0.1314842E+00
        -11   -1    0    0    0    0  0.00000000000E+00  0.00000000000E+00  0.45600000000E+02  0.45600000000E+02  0.00000000000E+00 0.  1.
         11   -1    0    0    0    0 -0.00000000000E+00 -0.00000000000E+00 -0.45600000000E+02  0.45600000000E+02  0.00000000000E+00 0. -1.
        -11    1    1    2    0    0 -0.57135015898E+00  0.30589842701E+00  0.44922620218E+02  0.44927294845E+02  0.00000000000E+00 0.  1.
         11    1    1    2    0    0 -0.50653348793E-01 -0.51887882589E+00 -0.35714647466E+02  0.35718452439E+02  0.00000000000E+00 0. -1.
        -15    1    1    2    0    0  0.16858220990E+01  0.17308315200E+00 -0.23826465242E+01  0.34215036733E+01  0.17770000000E+01 0. -1.
         15    1    1    2    0    0 -0.10638185913E+01  0.39897246876E-01 -0.68253262276E+01  0.71327490422E+01  0.17770000000E+01 0. -1.
</event>
<event>
 6    1  0.4063263E-002  0.5229772E+02  0.7546771E-02  0.1288223E+00
        -11   -1    0    0    0    0  0.00000000000E+00  0.00000000000E+00  0.45600000000E+02  0.45600000000E+02  0.00000000000E+00 0.  1.
         11   -1    0    0    0    0 -0.00000000000E+00 -0.00000000000E+00 -0.45600000000E+02  0.45600000000E+02  0.00000000000E+00 0.  1.
        -11    1    1    2    0    0  0.16990218587E+01  0.45793420252E+00  0.27696805056E+02  0.27752646529E+02  0.00000000000E+00 0.  1.
         11    1    1    2    0    0 -0.10624800804E+01  0.91603893377E+00 -0.38876979817E+02  0.38902282079E+02  0.00000000000E+00 0.  1.
        -15    1    1    2    0    0  0.15739307868E+01  0.66866169890E+00 -0.62756115443E+01  0.67428032630E+01  0.17770000000E+01 0.  1.
         15    1    1    2    0    0 -0.22104725651E+01 -0.20426348352E+01  0.17455786305E+02  0.17802268130E+02  0.17770000000E+01 0. -1.
</event>
<event>
 6    1  0.3691007E-002  0.4799725E+02  0.7546771E-02  0.1306767E+00
        -11   -1    0    0    0    0  0.00000000000E+00  0.00000000000E+00  0.45600000000E+02  0.45600000000E+02  0.00000000000E+00 0.  1.
         11   -1    0    0    0    0 -0.00000000000E+00 -0.00000000000E+00 -0.45600000000E+02  0.45600000000E+02  0.00000000000E+00 0. -1.
        -11    1    1    2    0    0  0.51941600739E+00  0.21347272570E+00  0.22022653755E+02  0.22029812574E+02  0.00000000000E+00 0.  1.
         11    1    1    2    0    0 -0.73072817105E+00  0.24150617192E+00 -0.43195897145E+02  0.43202752448E+02  0.00000000000E+00 0. -1.
        -15    1    1    2    0    0 -0.84224161897E+00  0.47774773550E+01  0.13196676675E+01  0.53322521110E+01  0.17770000000E+01 0. -1.
         15    1    1    2    0    0  0.10535537826E+01 -0.52324562526E+01  0.19853575722E+02  0.20635182868E+02  0.17770000000E+01 0.  1.
</event>
<event>
 6    1  0.3691007E-002  0.4607082E+02  0.7546771E-02  0.1315814E+00
        -11   -1    0    0    0    0  0.00000000000E+00  0.00000000000E+00  0.45600000000E+02  0.45600000000E+02  0.00000000000E+00 0.  1.
         11   -1    0    0    0    0 -0.00000000000E+00 -0.00000000000E+00 -0.45600000000E+02  0.45600000000E+02  0.00000000000E+00 0. -1.
        -11    1    1    2    0    0 -0.60238365590E-01 -0.10790558126E+01  0.45116241867E+02  0.45129184242E+02  0.00000000000E+00 0.  1.
         11    1    1    2    0    0  0.10605548689E+01 -0.18713311523E+01 -0.28189305427E+02  0.28271250368E+02  0.00000000000E+00 0. -1.
        -15    1    1    2    0    0  0.56713868101E+00  0.15332985128E+01 -0.49369499693E+01  0.54958033637E+01  0.17770000000E+01 0.  1.
         15    1    1    2    0    0 -0.15674551843E+01  0.14170884522E+01 -0.11989986471E+02  0.12303762027E+02  0.17770000000E+01 0.  1.
</event>
<event>
 6    1  0.3691007E-002  0.4635422E+02  0.7546771E-02  0.1314451E+00
        -11   -1    0    0    0    0  0.00000000000E+00  0.00000000000E+00  0.45600000000E+02  0.45600000000E+02  0.00000000000E+00 0.  1.
         11   -1    0    0    0    0 -0.00000000000E+00 -0.00000000000E+00 -0.45600000000E+02  0.45600000000E+02  0.00000000000E+00 0. -1.
        -11    1    1    2    0    0  0.22720158791E+01 -0.10858018955E+01  0.43760802010E+01  0.50488711448E+01  0.00000000000E+00 0.  1.
         11    1    1    2    0    0 -0.16226237102E+01 -0.45040808443E+00 -0.44814149975E+02  0.44845778097E+02  0.00000000000E+00 0. -1.
        -15    1    1    2    0    0 -0.12977258732E+01 -0.21903334050E+01  0.28262530936E+02  0.28432552414E+02  0.17770000000E+01 0.  1.
         15    1    1    2    0    0  0.64833370427E+00  0.37265433850E+01  0.12175538839E+02  0.12872798344E+02  0.17770000000E+01 0. -1.
</event>
<event>
 6    1  0.5435520E-002  0.3955861E+02  0.7546771E-02  0.1350629E+00
        -11   -1    0    0    0    0  0.00000000000E+00  0.00000000000E+00  0.45600000000E+02  0.45600000000E+02  0.00000000000E+00 0. -1.
         11   -1    0    0    0    0 -0.00000000000E+00 -0.00000000000E+00 -0.45600000000E+02  0.45600000000E+02  0.00000000000E+00 0. -1.
        -11    1    1    2    0    0 -0.61261876914E+00 -0.83489774671E+00  0.40506783189E+02  0.40520017773E+02  0.00000000000E+00 0. -1.
         11    1    1    2    0    0  0.30282940317E+01  0.74128122156E+01 -0.38110905873E+02  0.38943054531E+02  0.00000000000E+00 0. -1.
        -15    1    1    2    0    0  0.19282027322E+01 -0.99558369354E-01  0.12956776901E+01  0.29264974495E+01  0.17770000000E+01 0.  1.
         15    1    1    2    0    0 -0.43438779947E+01 -0.64783560995E+01 -0.36915550053E+01  0.88104302473E+01  0.17770000000E+01 0. -1.
</event>
<event>
 6    1  0.3691007E-002  0.4611961E+02  0.7546771E-02  0.1315578E+00
        -11   -1    0    0    0    0  0.00000000000E+00  0.00000000000E+00  0.45600000000E+02  0.45600000000E+02  0.00000000000E+00 0.  1.
         11   -1    0    0    0    0 -0.00000000000E+00 -0.00000000000E+00 -0.45600000000E+02  0.45600000000E+02  0.00000000000E+00 0.  1.
        -11    1    1    2    0    0 -0.13186526801E+01  0.65736280666E+00  0.45056309519E+02  0.45080394832E+02  0.00000000000E+00 0.  1.
         11    1    1    2    0    0  0.16745650402E+00 -0.15894585339E+01 -0.18576993718E+02  0.18645619210E+02  0.00000000000E+00 0.  1.
        -15    1    1    2    0    0 -0.53467106127E+00  0.15641209569E+01 -0.23228140215E+02  0.23354583583E+02  0.17770000000E+01 0.  1.
         15    1    1    2    0    0  0.16858672374E+01 -0.63202522964E+00 -0.32511755859E+01  0.41194023745E+01  0.17770000000E+01 0.  1.
</event>
<event>
 6    1  0.3691007E-002  0.4626392E+02  0.7546771E-02  0.1314884E+00
        -11   -1    0    0    0    0  0.00000000000E+00  0.00000000000E+00  0.45600000000E+02  0.45600000000E+02  0.00000000000E+00 0.  1.
         11   -1    0    0    0    0 -0.00000000000E+00 -0.00000000000E+00 -0.45600000000E+02  0.45600000000E+02  0.00000000000E+00 0.  1.
        -11    1    1    2    0    0 -0.28837964325E+00 -0.87099635685E+00  0.30498955716E+02  0.30512753026E+02  0.00000000000E+00 0.  1.
         11    1    1    2    0    0 -0.36263590617E+00  0.55578653399E+00 -0.44931180753E+02  0.44936081352E+02  0.00000000000E+00 0.  1.
        -15    1    1    2    0    0 -0.34314656252E+00 -0.45142587376E+00  0.94766801591E+00  0.20922090123E+01  0.17770000000E+01 0. -1.
         15    1    1    2    0    0  0.99416211194E+00  0.76663569662E+00  0.13484557021E+02  0.13658956609E+02  0.17770000000E+01 0.  1.
</event>
<event>
 6    1  0.3691007E-002  0.4723022E+02  0.7546771E-02  0.1310309E+00
        -11   -1    0    0    0    0  0.00000000000E+00  0.00000000000E+00  0.45600000000E+02  0.45600000000E+02  0.00000000000E+00 0.  1.
         11   -1    0    0    0    0 -0.00000000000E+00 -0.00000000000E+00 -0.45600000000E+02  0.45600000000E+02  0.00000000000E+00 0.  1.
        -11    1    1    2    0    0 -0.45664106798E+00  0.77593743670E+00  0.38126480691E+02  0.38137109615E+02  0.00000000000E+00 0.  1.
         11    1    1    2    0    0  0.13918574852E+01  0.35406499995E+01 -0.43804885978E+02  0.43969779454E+02  0.00000000000E+00 0.  1.
        -15    1    1    2    0    0 -0.13793501498E+01 -0.45580085635E+01  0.32166274411E+01  0.60151866135E+01  0.17770000000E+01 0.  1.
         15    1    1    2    0    0  0.44413373251E+00  0.24142112735E+00  0.24617778467E+01  0.30779243167E+01  0.17770000000E+01 0.  1.
</event>
<event>
 6    1  0.3691007E-002  0.4584261E+02  0.7546771E-02  0.1316919E+00
        -11   -1    0    0    0    0  0.00000000000E+00  0.00000000000E+00  0.45600000000E+02  0.45600000000E+02  0.00000000000E+00 0. -1.
         11   -1    0    0    0    0 -0.00000000000E+00 -0.00000000000E+00 -0.45600000000E+02  0.45600000000E+02  0.00000000000E+00 0. -1.
        -11    1    1    2    0    0  0.88813015461E+00  0.32110871342E+00  0.28632041934E+02  0.28647612663E+02  0.00000000000E+00 0. -1.
         11    1    1    2    0    0  0.15773506624E+00  0.11166130310E+01 -0.45343370074E+02  0.45357390960E+02  0.00000000000E+00 0. -1.
        -15    1    1    2    0    0 -0.42296763918E+00 -0.97566626453E+00  0.74226360664E+01  0.77061067640E+01  0.17770000000E+01 0.  1.
         15    1    1    2    0    0 -0.62289758167E+00 -0.46205547992E+00  0.92886920729E+01  0.94888896131E+01  0.17770000000E+01 0.  1.
</event>
<event>
 6    1  0.3691007E-002  0.4664806E+02  0.7546771E-02  0.1313050E+00
        -11   -1    0    0    0    0  0.00000000000E+00  0.00000000000E+00  0.45600000000E+02  0.45600000000E+02  0.00000000000E+00 0.  1.
         11   -1    0    0    0    0 -0.00000000000E+00 -0.00000000000E+00 -0.45600000000E+02  0.45600000000E+02  0.00000000000E+00 0. -1.
        -11    1    1    2    0    0  0.13051828755E+00  0.17978224915E+01  0.44515463051E+02  0.44551943295E+02  0.00000000000E+00 0.  1.
         11    1    1    2    0    0  0.14704365672E+01 -0.30890167497E+00 -0.40975445775E+02  0.41002984775E+02  0.00000000000E+00 0. -1.
        -15    1    1    2    0    0 -0.34901543638E+00 -0.11032586176E+01 -0.22332778158E+01  0.30796509794E+01  0.17770000000E+01 0. -1.
         15    1    1    2    0    0 -0.12519394184E+01 -0.38566219895E+00 -0.13067394597E+01  0.25654209507E+01  0.17770000000E+01 0.  1.
</event>
<event>
 6    1  0.3691007E-002  0.4175301E+02  0.7546771E-02  0.1338081E+00
        -11   -1    0    0    0    0  0.00000000000E+00  0.00000000000E+00  0.45600000000E+02  0.45600000000E+02  0.00000000000E+00 0.  1.
         11   -1    0    0    0    0 -0.00000000000E+00 -0.00000000000E+00 -0.45600000000E+02  0.45600000000E+02  0.00000000000E+00 0.  1.
        -11    1    1    2    0    0  0.28238422102E-01  0.68668286650E+00  0.41370871295E+02  0.41376579395E+02  0.00000000000E+00 0.  1.
         11    1    1    2    0    0 -0.35071651571E+01  0.20245449457E+01 -0.42054108788E+02  0.42248633773E+02  0.00000000000E+00 0.  1.
        -15    1    1    2    0    0  0.97909399309E+00 -0.24901151061E+01 -0.17460885372E+01  0.36559338709E+01  0.17770000000E+01 0.  1.
         15    1    1    2    0    0  0.24998327419E+01 -0.22111270605E+00  0.24293260311E+01  0.39188529612E+01  0.17770000000E+01 0. -1.
</event>
<event>
 6    1  0.3691007E-002  0.4952535E+02  0.7546771E-02  0.1299931E+00
        -11   -1    0    0    0    0  0.00000000000E+00  0.00000000000E+00  0.45600000000E+02  0.45600000000E+02  0.00000000000E+00 0. -1.
         11   -1    0    0    0    0 -0.00000000000E+00 -0.00000000000E+00 -0.45600000000E+02  0.45600000000E+02  0.00000000000E+00 0.  1.
        -11    1    1    2    0    0  0.10906780102E+00 -0.81890912941E+00  0.41666462500E+02  0.41674651830E+02  0.00000000000E+00 0. -1.
         11    1    1    2    0    0 -0.26809881777E+01 -0.57747510013E+01 -0.32322968613E+02  0.32944039624E+02  0.00000000000E+00 0.  1.
        -15    1    1    2    0    0 -0.45098419005E+00  0.54133202468E+01  0.81209734692E+00  0.57727509850E+01  0.17770000000E+01 0. -1.
         15    1    1    2    0    0  0.30229045667E+01  0.11803398839E+01 -0.10155591233E+02  0.10808557561E+02  0.17770000000E+01 0. -1.
</event>
<event>
 6    1  0.3691007E-002  0.4141023E+02  0.7546771E-02  0.1339981E+00
        -11   -1    0    0    0    0  0.00000000000E+00  0.00000000000E+00  0.45600000000E+02  0.45600000000E+02  0.00000000000E+00 0.  1.
         11   -1    0    0    0    0 -0.00000000000E+00 -0.00000000000E+00 -0.45600000000E+02  0.45600000000E+02  0.00000000000E+00 0. -1.
        -11    1    1    2    0    0  0.19139650887E+01  0.32929130048E+00  0.40411856690E+02  0.40458495477E+02  0.00000000000E+00 0.  1.
         11    1    1    2    0    0  0.12659521335E+01  0.43967935153E+00 -0.42429967968E+02  0.42451126422E+02  0.00000000000E+00 0. -1.
        -15    1    1    2    0    0  0.10246561627E+01  0.17432392978E+01  0.14266125116E+01  0.30465974068E+01  0.17770000000E+01 0.  1.
         15    1    1    2    0    0 -0.42045733849E+01 -0.25122099498E+01  0.59149876621E+00  0.52437806944E+01  0.17770000000E+01 0.  1.
</event>
<event>
 6    1  0.3691007E-002  0.4703583E+02  0.7546771E-02  0.1311219E+00
        -11   -1    0    0    0    0  0.00000000000E+00  0.00000000000E+00  0.45600000000E+02  0.45600000000E+02  0.00000000000E+00 0.  1.
         11   -1    0    0    0    0 -0.00000000000E+00 -0.00000000000E+00 -0.45600000000E+02  0.45600000000E+02  0.00000000000E+00 0.  1.
        -11    1    1    2    0    0  0.30065906821E+01  0.25784059852E+01  0.43986201054E+02  0.44164167015E+02  0.00000000000E+00 0.  1.
         11    1    1    2    0    0  0.15839238212E+01 -0.86789399851E+00 -0.37747271783E+02  0.37790456225E+02  0.00000000000E+00 0.  1.
        -15    1    1    2    0    0 -0.31018379059E+01 -0.17806636689E+00 -0.51259239401E+01  0.62518742202E+01  0.17770000000E+01 0.  1.
         15    1    1    2    0    0 -0.14886765974E+01 -0.15324456198E+01 -0.11130053311E+01  0.29935025399E+01  0.17770000000E+01 0. -1.
</event>
<event>
 6    1  0.3691007E-002  0.4733255E+02  0.7546771E-02  0.1309832E+00
        -11   -1    0    0    0    0  0.00000000000E+00  0.00000000000E+00  0.45600000000E+02  0.45600000000E+02  0.00000000000E+00 0.  1.
         11   -1    0    0    0    0 -0.00000000000E+00 -0.00000000000E+00 -0.45600000000E+02  0.45600000000E+02  0.00000000000E+00 0. -1.
        -11    1    1    2    0    0  0.92430460841E+00  0.14879662508E+00  0.34214029002E+02  0.34226835378E+02  0.00000000000E+00 0.  1.
         11    1    1    2    0    0 -0.29292003419E+00  0.65509575115E+00 -0.43861579034E+02  0.43867448843E+02  0.00000000000E+00 0. -1.
        -15    1    1    2    0    0 -0.11420787030E+01 -0.30025106925E+01  0.95500482985E+01  0.10231352097E+02  0.17770000000E+01 0.  1.
         15    1    1    2    0    0  0.51069412873E+00  0.21986183162E+01  0.97501734080E-01  0.28743636829E+01  0.17770000000E+01 0.  1.
</event>
<event>
 6    1  0.3691007E-002  0.5138364E+02  0.7546771E-02  0.1291989E+00
        -11   -1    0    0    0    0  0.00000000000E+00  0.00000000000E+00  0.45600000000E+02  0.45600000000E+02  0.00000000000E+00 0.  1.
         11   -1    0    0    0    0 -0.00000000000E+00 -0.00000000000E+00 -0.45600000000E+02  0.45600000000E+02  0.00000000000E+00 0. -1.
        -11    1    1    2    0    0  0.67331422421E+00 -0.18825600647E+00  0.27776502906E+02  0.27785300179E+02  0.00000000000E+00 0.  1.
         11    1    1    2    0    0 -0.20427344188E+01 -0.12834370054E+02 -0.37635736070E+02  0.39816359052E+02  0.00000000000E+00 0. -1.
        -15    1    1    2    0    0  0.25908054823E+01  0.14730476147E+02  0.19048058708E+01  0.15181739524E+02  0.17770000000E+01 0.  1.
         15    1    1    2    0    0 -0.12213852878E+01 -0.17078500871E+01  0.79544272937E+01  0.84166012447E+01  0.17770000000E+01 0.  1.
</event>
<event>
 6    1  0.3691007E-002  0.4627686E+02  0.7546771E-02  0.1314822E+00
        -11   -1    0    0    0    0  0.00000000000E+00  0.00000000000E+00  0.45600000000E+02  0.45600000000E+02  0.00000000000E+00 0. -1.
         11   -1    0    0    0    0 -0.00000000000E+00 -0.00000000000E+00 -0.45600000000E+02  0.45600000000E+02  0.00000000000E+00 0.  1.
        -11    1    1    2    0    0  0.56156050964E+00 -0.23769319288E+00  0.44918996893E+02  0.44923135800E+02  0.00000000000E+00 0. -1.
         11    1    1    2    0    0  0.25930779489E+00 -0.68250267103E+00 -0.24466897768E+02  0.24477788642E+02  0.00000000000E+00 0.  1.
        -15    1    1    2    0    0  0.23557046250E+01 -0.64243683121E+00 -0.13144719358E+02  0.13487158535E+02  0.17770000000E+01 0.  1.
         15    1    1    2    0    0 -0.31765729296E+01  0.15626326951E+01 -0.73073797675E+01  0.83119170222E+01  0.17770000000E+01 0.  1.
</event>
<event>
 6    1  0.3691007E-002  0.3243847E+02  0.7546771E-02  0.1398901E+00
        -11   -1    0    0    0    0  0.00000000000E+00  0.00000000000E+00  0.45600000000E+02  0.45600000000E+02  0.00000000000E+00 0. -1.
         11   -1    0    0    0    0 -0.00000000000E+00 -0.00000000000E+00 -0.45600000000E+02  0.45600000000E+02  0.00000000000E+00 0.  1.
        -11    1    1    2    0    0 -0.63069074983E+00 -0.24475028911E-01  0.32660305560E+02  0.32666403676E+02  0.00000000000E+00 0. -1.
         11    1    1    2    0    0  0.15878535492E+01 -0.57188465871E+00 -0.32177906123E+02  0.32222134836E+02  0.00000000000E+00 0.  1.
        -15    1    1    2    0    0 -0.65952986344E+01  0.39845813773E+01  0.10646726565E+02  0.13262178116E+02  0.17770000000E+01 0. -1.
         15    1    1    2    0    0  0.56381358350E+01 -0.33882216897E+01 -0.11129126003E+02  0.13049283371E+02  0.17770000000E+01 0.  1.
</event>
<event>
 6    1  0.4444910E-002  0.4606630E+02  0.7546771E-02  0.1315835E+00
        -11   -1    0    0    0    0  0.00000000000E+00  0.00000000000E+00  0.45600000000E+02  0.45600000000E+02  0.00000000000E+00 0.  1.
         11   -1    0    0    0    0 -0.00000000000E+00 -0.00000000000E+00 -0.45600000000E+02  0.45600000000E+02  0.00000000000E+00 0. -1.
        -11    1    1    2    0    0 -0.15811274019E+01 -0.62281795515E+00  0.45101694674E+02  0.45133698370E+02  0.00000000000E+00 0.  1.
         11    1    1    2    0    0  0.43328570689E+00  0.90879885653E+00 -0.19197751954E+02  0.19224134101E+02  0.00000000000E+00 0. -1.
        -15    1    1    2    0    0  0.79139691792E-01 -0.14670904955E+01 -0.22851837990E+02  0.22967865511E+02  0.17770000000E+01 0. -1.
         15    1    1    2    0    0  0.10687020032E+01  0.11811095941E+01 -0.30521047298E+01  0.38743020180E+01  0.17770000000E+01 0.  1.
</event>
<event>
 6    1  0.3691007E-002  0.4677224E+02  0.7546771E-02  0.1312462E+00
        -11   -1    0    0    0    0  0.00000000000E+00  0.00000000000E+00  0.45600000000E+02  0.45600000000E+02  0.00000000000E+00 0.  1.
         11   -1    0    0    0    0 -0.00000000000E+00 -0.00000000000E+00 -0.45600000000E+02  0.45600000000E+02  0.00000000000E+00 0.  1.
        -11    1    1    2    0    0 -0.21293726604E+01 -0.48883312837E+00  0.44374013180E+02  0.44427764196E+02  0.00000000000E+00 0.  1.
         11    1    1    2    0    0 -0.95310080126E+00 -0.55035761541E+00 -0.23978518199E+02  0.24003762823E+02  0.00000000000E+00 0.  1.
        -15    1    1    2    0    0 -0.24643040752E+00  0.12392941698E+01 -0.18335404274E+02  0.18464597393E+02  0.17770000000E+01 0.  1.
         15    1    1    2    0    0  0.33289038692E+01 -0.20010342607E+00 -0.20600907068E+01  0.43038755874E+01  0.17770000000E+01 0.  1.
</event>
<event>
 6    1  0.3691007E-002  0.4186217E+02  0.7546771E-02  0.1337480E+00
        -11   -1    0    0    0    0  0.00000000000E+00  0.00000000000E+00  0.45600000000E+02  0.45600000000E+02  0.00000000000E+00 0. -1.
         11   -1    0    0    0    0 -0.00000000000E+00 -0.00000000000E+00 -0.45600000000E+02  0.45600000000E+02  0.00000000000E+00 0.  1.
        -11    1    1    2    0    0  0.15171900302E+01 -0.66006437679E+00  0.25579229499E+01  0.30463946538E+01  0.00000000000E+00 0. -1.
         11    1    1    2    0    0  0.48695592894E+00 -0.89080351124E+00 -0.43238002946E+02  0.43249919720E+02  0.00000000000E+00 0.  1.
        -15    1    1    2    0    0  0.16371942844E+01  0.35503929080E+01  0.33635389722E+00  0.43077323350E+01  0.17770000000E+01 0.  1.
         15    1    1    2    0    0 -0.36413402435E+01 -0.19995250200E+01  0.40343726099E+02  0.40595953291E+02  0.17770000000E+01 0. -1.
</event>
<event>
 6    1  0.3691007E-002  0.5922558E+02  0.7546771E-02  0.1262277E+00
        -11   -1    0    0    0    0  0.00000000000E+00  0.00000000000E+00  0.45600000000E+02  0.45600000000E+02  0.00000000000E+00 0.  1.
         11   -1    0    0    0    0 -0.00000000000E+00 -0.00000000000E+00 -0.45600000000E+02  0.45600000000E+02  0.00000000000E+00 0.  1.
        -11    1    1    2    0    0  0.54642049821E+00  0.18761253882E+00  0.31969200330E+02  0.31974420145E+02  0.00000000000E+00 0.  1.
         11    1    1    2    0    0  0.17938788533E+01 -0.21195914524E+01 -0.28306668798E+02  0.28442541513E+02  0.00000000000E+00 0.  1.
        -15    1    1    2    0    0 -0.75906637400E+01 -0.36926225268E+01 -0.14799793439E+02  0.17130243781E+02  0.17770000000E+01 0.  1.
         15    1    1    2    0    0  0.52503643885E+01  0.56246014404E+01  0.11137261907E+02  0.13652794562E+02  0.17770000000E+01 0. -1.
</event>
<event>
 6    1  0.3691007E-002  0.4683110E+02  0.7546771E-02  0.1312183E+00
        -11   -1    0    0    0    0  0.00000000000E+00  0.00000000000E+00  0.45600000000E+02  0.45600000000E+02  0.00000000000E+00 0. -1.
         11   -1    0    0    0    0 -0.00000000000E+00 -0.00000000000E+00 -0.45600000000E+02  0.45600000000E+02  0.00000000000E+00 0.  1.
        -11    1    1    2    0    0  0.99401442541E+00  0.34437978769E+00  0.44356422665E+02  0.44368895566E+02  0.00000000000E+00 0. -1.
         11    1    1    2    0    0 -0.10448046704E+01  0.19933484092E+01 -0.73159091344E+01  0.76542524875E+01  0.00000000000E+00 0.  1.
        -15    1    1    2    0    0 -0.13781253454E+01 -0.49053103629E+01 -0.34463707636E+02  0.34883608934E+02  0.17770000000E+01 0.  1.
         15    1    1    2    0    0  0.14289155904E+01  0.25675821660E+01 -0.25768058948E+01  0.42932430124E+01  0.17770000000E+01 0. -1.
</event>
<event>
 6    1  0.3691007E-002  0.4619458E+02  0.7546771E-02  0.1315217E+00
        -11   -1    0    0    0    0  0.00000000000E+00  0.00000000000E+00  0.45600000000E+02  0.45600000000E+02  0.00000000000E+00 0. -1.
         11   -1    0    0    0    0 -0.00000000000E+00 -0.00000000000E+00 -0.45600000000E+02  0.45600000000E+02  0.00000000000E+00 0.  1.
        -11    1    1    2    0    0  0.10125590429E+01  0.19746184321E+00  0.44993590154E+02  0.45005415474E+02  0.00000000000E+00 0. -1.
         11    1    1    2    0    0  0.50908067451E-01 -0.14685666145E+01 -0.31869884837E+02  0.31903743340E+02  0.00000000000E+00 0.  1.
        -15    1    1    2    0    0  0.55901831064E+00 -0.11893366312E+01 -0.48446733598E+01  0.53249987847E+01  0.17770000000E+01 0. -1.
         15    1    1    2    0    0 -0.16224854210E+01  0.24604414024E+01 -0.82790319568E+01  0.89658424020E+01  0.17770000000E+01 0.  1.
</event>
<event>
 6    1  0.3691007E-002  0.4316074E+02  0.7546771E-02  0.1330492E+00
        -11   -1    0    0    0    0  0.00000000000E+00  0.00000000000E+00  0.45600000000E+02  0.45600000000E+02  0.00000000000E+00 0.  1.
         11   -1    0    0    0    0 -0.00000000000E+00 -0.00000000000E+00 -0.45600000000E+02  0.45600000000E+02  0.00000000000E+00 0. -1.
        -11    1    1    2    0    0 -0.78105973820E+00 -0.39328125127E-01  0.43428375450E+02  0.43435416370E+02  0.00000000000E+00 0.  1.
         11    1    1    2    0    0 -0.10065900749E+00 -0.78463366142E+00 -0.42888890946E+02  0.42896185714E+02  0.00000000000E+00 0. -1.
        -15    1    1    2    0    0 -0.77793922562E+00  0.17629772056E+00  0.69179405265E+00  0.20670216100E+01  0.17770000000E+01 0.  1.
         15    1    1    2    0    0  0.16596579713E+01  0.64766406599E+00 -0.12312785566E+01  0.28013763060E+01  0.17770000000E+01 0. -1.
</event>
<event>
 6    1  0.3691007E-002  0.4278565E+02  0.7546771E-02  0.1332481E+00
        -11   -1    0    0    0    0  0.00000000000E+00  0.00000000000E+00  0.45600000000E+02  0.45600000000E+02  0.00000000000E+00 0.  1.
         11   -1    0    0    0    0 -0.00000000000E+00 -0.00000000000E+00 -0.45600000000E+02  0.45600000000E+02  0.00000000000E+00 0.  1.
        -11    1    1    2    0    0 -0.33345936082E+00  0.79963670709E+00  0.42500912076E+02  0.42509741722E+02  0.00000000000E+00 0.  1.
         11    1    1    2    0    0  0.58984250365E+00  0.69144593486E+00 -0.43067207956E+02  0.43076796686E+02  0.00000000000E+00 0.  1.
        -15    1    1    2    0    0  0.11234724714E+01 -0.18933903550E+01 -0.81327956010E+00  0.29438529299E+01  0.17770000000E+01 0. -1.
         15    1    1    2    0    0 -0.13798556142E+01  0.40230771301E+00  0.13795754397E+01  0.26696086616E+01  0.17770000000E+01 0.  1.
</event>
<event>
 6    1  0.3691007E-002  0.5108946E+02  0.7546771E-02  0.1293221E+00
        -11   -1    0    0    0    0  0.00000000000E+00  0.00000000000E+00  0.45600000000E+02  0.45600000000E+02  0.00000000000E+00 0. -1.
         11   -1    0    0    0    0 -0.00000000000E+00 -0.00000000000E+00 -0.45600000000E+02  0.45600000000E+02  0.00000000000E+00 0. -1.
        -11    1    1    2    0    0 -0.94428553932E+00  0.95317405054E+00  0.31680138426E+02  0.31708538071E+02  0.00000000000E+00 0. -1.
         11    1    1    2    0    0 -0.25133068132E+00 -0.48702668750E+00 -0.40106796884E+02  0.40110541238E+02  0.00000000000E+00 0. -1.
        -15    1    1    2    0    0 -0.43065744070E+01  0.13577411986E+01  0.11573778874E+02  0.12549905605E+02  0.17770000000E+01 0.  1.
         15    1    1    2    0    0  0.55021906276E+01 -0.18238885616E+01 -0.31471204153E+01  0.68310150854E+01  0.17770000000E+01 0. -1.
</event>
<event>
 6    1  0.3691007E-002  0.4272045E+02  0.7546771E-02  0.1332829E+00
        -11   -1    0    0    0    0  0.00000000000E+00  0.00000000000E+00  0.45600000000E+02  0.45600000000E+02  0.00000000000E+00 0.  1.
         11   -1    0    0    0    0 -0.00000000000E+00 -0.00000000000E+00 -0.45600000000E+02  0.45600000000E+02  0.00000000000E+00 0.  1.
        -11    1    1    2    0    0 -0.21161286186E+00 -0.57902071959E+00  0.43256071623E+02  0.43260464367E+02  0.00000000000E+00 0.  1.
         11    1    1    2    0    0  0.24121786147E+01 -0.20300658128E+01 -0.42138121985E+02  0.42255900148E+02  0.00000000000E+00 0.  1.
        -15    1    1    2    0    0  0.75748278029E-01  0.16232523739E+01 -0.10617855926E+01  0.26316921772E+01  0.17770000000E+01 0. -1.
         15    1    1    2    0    0 -0.22763140309E+01  0.98583415841E+00 -0.56164044869E-01  0.30519433080E+01  0.17770000000E+01 0.  1.
</event>
<event>
 6    1  0.3691007E-002  0.4595556E+02  0.7546771E-02  0.1316371E+00
        -11   -1    0    0    0    0  0.00000000000E+00  0.00000000000E+00  0.45600000000E+02  0.45600000000E+02  0.00000000000E+00 0.  1.
         11   -1    0    0    0    0 -0.00000000000E+00 -0.00000000000E+00 -0.45600000000E+02  0.45600000000E+02  0.00000000000E+00 0.  1.
        -11    1    1    2    0    0  0.78898837869E+00  0.13929601003E+00  0.45237349757E+02  0.45244444068E+02  0.00000000000E+00 0.  1.
         11    1    1    2    0    0 -0.21324307515E+00  0.58203883474E+00 -0.67837074717E+01  0.68119695299E+01  0.00000000000E+00 0.  1.
        -15    1    1    2    0    0  0.10784568877E+00 -0.34998522104E+01 -0.19175010528E+02  0.19572924000E+02  0.17770000000E+01 0. -1.
         15    1    1    2    0    0 -0.68359099231E+00  0.27785173656E+01 -0.19278631757E+02  0.19570662402E+02  0.17770000000E+01 0.  1.
</event>
<event>
 6    1  0.3691007E-002  0.2335516E+02  0.7546771E-02  0.1487120E+00
        -11   -1    0    0    0    0  0.00000000000E+00  0.00000000000E+00  0.45600000000E+02  0.45600000000E+02  0.00000000000E+00 0.  1.
         11   -1    0    0    0    0 -0.00000000000E+00 -0.00000000000E+00 -0.45600000000E+02  0.45600000000E+02  0.00000000000E+00 0. -1.
        -11    1    1    2    0    0 -0.29750859762E+01 -0.23880413856E+01  0.25743747807E+02  0.26024880968E+02  0.00000000000E+00 0.  1.
         11    1    1    2    0    0  0.55200329326E+00 -0.30177191242E+00 -0.27904954384E+02  0.27912044946E+02  0.00000000000E+00 0. -1.
        -15    1    1    2    0    0  0.10261813982E+01  0.34875386546E+01 -0.17242975626E+02  0.17711406256E+02  0.17770000000E+01 0. -1.
         15    1    1    2    0    0  0.13969012848E+01 -0.79772535658E+00  0.19404182203E+02  0.19551667829E+02  0.17770000000E+01 0.  1.
</event>
<event>
 6    1  0.3691007E-002  0.4650212E+02  0.7546771E-02  0.1313744E+00
        -11   -1    0    0    0    0  0.00000000000E+00  0.00000000000E+00  0.45600000000E+02  0.45600000000E+02  0.00000000000E+00 0. -1.
         11   -1    0    0    0    0 -0.00000000000E+00 -0.00000000000E+00 -0.45600000000E+02  0.45600000000E+02  0.00000000000E+00 0. -1.
        -11    1    1    2    0    0 -0.16679619681E+01 -0.93224487778E-01  0.44666650839E+02  0.44697880096E+02  0.00000000000E+00 0. -1.
         11    1    1    2    0    0 -0.61856229062E+00  0.11229515637E+00 -0.39494789014E+02  0.39499792262E+02  0.00000000000E+00 0. -1.
        -15    1    1    2    0    0  0.54128418305E+00  0.12829610109E+00 -0.36010529824E+01  0.40539807644E+01  0.17770000000E+01 0. -1.
         15    1    1    2    0    0  0.17452400757E+01 -0.14736676969E+00 -0.15708088431E+01  0.29483468772E+01  0.17770000000E+01 0. -1.
</event>
<event>
 6    1  0.3691007E-002  0.4612081E+02  0.7546771E-02  0.1315572E+00
        -11   -1    0    0    0    0  0.00000000000E+00  0.00000000000E+00  0.45600000000E+02  0.45600000000E+02  0.00000000000E+00 0. -1.
         11   -1    0    0    0    0 -0.00000000000E+00 -0.00000000000E+00 -0.45600000000E+02  0.45600000000E+02  0.00000000000E+00 0. -1.
        -11    1    1    2    0    0  0.58090383119E+00 -0.91302774017E+00  0.45066201706E+02  0.45079192596E+02  0.00000000000E+00 0. -1.
         11    1    1    2    0    0  0.12287278252E+01  0.11708475262E+01 -0.10505433541E+02  0.10641653531E+02  0.00000000000E+00 0. -1.
        -15    1    1    2    0    0 -0.26988751266E+01 -0.21500285952E+01 -0.29201416735E+02  0.29458224968E+02  0.17770000000E+01 0. -1.
         15    1    1    2    0    0  0.88924347029E+00  0.18922088092E+01 -0.53593514302E+01  0.60209289050E+01  0.17770000000E+01 0.  1.
</event>
<event>
 6    1  0.3691007E-002  0.4668525E+02  0.7546771E-02  0.1312874E+00
        -11   -1    0    0    0    0  0.00000000000E+00  0.00000000000E+00  0.45600000000E+02  0.45600000000E+02  0.00000000000E+00 0. -1.
         11   -1    0    0    0    0 -0.00000000000E+00 -0.00000000000E+00 -0.45600000000E+02  0.45600000000E+02  0.00000000000E+00 0. -1.
        -11    1    1    2    0    0 -0.54959665686E+00 -0.24976200646E+00  0.44510659472E+02  0.44514753107E+02  0.00000000000E+00 0. -1.
         11    1    1    2    0    0 -0.16776345888E+01 -0.54630729930E+01 -0.20676264263E+02  0.21451515755E+02  0.00000000000E+00 0. -1.
        -15    1    1    2    0    0  0.30441356523E+01  0.45490857448E+01 -0.13944244483E+02  0.15085112734E+02  0.17770000000E+01 0.  1.
         15    1    1    2    0    0 -0.81690440658E+00  0.11637492546E+01 -0.98901507254E+01  0.10148618404E+02  0.17770000000E+01 0. -1.
</event>
<event>
 6    1  0.3691007E-002  0.4747665E+02  0.7546771E-02  0.1309163E+00
        -11   -1    0    0    0    0  0.00000000000E+00  0.00000000000E+00  0.45600000000E+02  0.45600000000E+02  0.00000000000E+00 0.  1.
         11   -1    0    0    0    0 -0.00000000000E+00 -0.00000000000E+00 -0.45600000000E+02  0.45600000000E+02  0.00000000000E+00 0. -1.
        -11    1    1    2    0    0  0.23115949802E+01 -0.27534633923E+01  0.43575299380E+02  0.43723354721E+02  0.00000000000E+00 0.  1.
         11    1    1    2    0    0  0.69857302875E-01  0.10082074118E+01 -0.39848485967E+02  0.39861299479E+02  0.00000000000E+00 0. -1.
        -15    1    1    2    0    0 -0.37377427869E+01  0.10411151288E+01 -0.27455749335E+01  0.50745002284E+01  0.17770000000E+01 0. -1.
         15    1    1    2    0    0  0.13562905038E+01  0.70414085178E+00 -0.98123847876E+00  0.25408455723E+01  0.17770000000E+01 0. -1.
</event>
<event>
 6    1  0.3691007E-002  0.4579743E+02  0.7546771E-02  0.1317139E+00
        -11   -1    0    0    0    0  0.00000000000E+00  0.00000000000E+00  0.45600000000E+02  0.45600000000E+02  0.00000000000E+00 0. -1.
         11   -1    0    0    0    0 -0.00000000000E+00 -0.00000000000E+00 -0.45600000000E+02  0.45600000000E+02  0.00000000000E+00 0. -1.
        -11    1    1    2    0    0  0.17204840307E+01  0.11490601982E+01  0.45355406183E+02  0.45402569031E+02  0.00000000000E+00 0. -1.
         11    1    1    2    0    0  0.66716647566E+00 -0.26559275378E+00 -0.63837154945E+01  0.64239765046E+01  0.00000000000E+00 0. -1.
        -15    1    1    2    0    0 -0.17130946429E+01 -0.84226035950E+00 -0.33079276460E+02  0.33181928152E+02  0.17770000000E+01 0. -1.
         15    1    1    2    0    0 -0.67455586341E+00 -0.41207084891E-01 -0.58924142280E+01  0.61915263119E+01  0.17770000000E+01 0.  1.
</event>
<event>
 6    1  0.3691007E-002  0.4624167E+02  0.7546771E-02  0.1314991E+00
        -11   -1    0    0    0    0  0.00000000000E+00  0.00000000000E+00  0.45600000000E+02  0.45600000000E+02  0.00000000000E+00 0. -1.
         11   -1    0    0    0    0 -0.00000000000E+00 -0.00000000000E+00 -0.45600000000E+02  0.45600000000E+02  0.00000000000E+00 0.  1.
        -11    1    1    2    0    0 -0.25935066100E+01  0.88078199269E+00  0.14847402065E+02  0.15097927060E+02  0.00000000000E+00 0. -1.
         11    1    1    2    0    0 -0.36301220992E+01  0.21442347428E+01 -0.44760203414E+02  0.44958328915E+02  0.00000000000E+00 0.  1.
        -15    1    1    2    0    0  0.39349015753E+00 -0.99622123769E+00  0.10261780216E+02  0.10469439023E+02  0.17770000000E+01 0.  1.
         15    1    1    2    0    0  0.58301385516E+01 -0.20287954978E+01  0.19651021134E+02  0.20674305002E+02  0.17770000000E+01 0. -1.
</event>
<event>
 6    1  0.3691007E-002  0.4720737E+02  0.7546771E-02  0.1310416E+00
        -11   -1    0    0    0    0  0.00000000000E+00  0.00000000000E+00  0.45600000000E+02  0.45600000000E+02  0.00000000000E+00 0. -1.
         11   -1    0    0    0    0 -0.00000000000E+00 -0.00000000000E+00 -0.45600000000E+02  0.45600000000E+02  0.00000000000E+00 0. -1.
        -11    1    1    2    0    0  0.13224298171E+01  0.87527710680E+00  0.23115399162E+02  0.23169734765E+02  0.00000000000E+00 0. -1.
         11    1    1    2    0    0  0.12855659822E+01  0.28269544978E+00 -0.43972929182E+02  0.43992625489E+02  0.00000000000E+00 0. -1.
        -15    1    1    2    0    0  0.19470101623E+01 -0.24262947608E+01  0.17748148790E+02  0.18106138995E+02  0.17770000000E+01 0. -1.
         15    1    1    2    0    0 -0.45550059617E+01  0.12683222043E+01  0.31093812292E+01  0.59315007505E+01  0.17770000000E+01 0.  1.
</event>
<event>
 6    1  0.3691007E-002  0.4688675E+02  0.7546771E-02  0.1311921E+00
        -11   -1    0    0    0    0  0.00000000000E+00  0.00000000000E+00  0.45600000000E+02  0.45600000000E+02  0.00000000000E+00 0.  1.
         11   -1    0    0    0    0 -0.00000000000E+00 -0.00000000000E+00 -0.45600000000E+02  0.45600000000E+02  0.00000000000E+00 0.  1.
        -11    1    1    2    0    0  0.39449489435E+00  0.78118490683E+00  0.44304608490E+02  0.44313250948E+02  0.00000000000E+00 0.  1.
         11    1    1    2    0    0  0.62539707642E+00  0.12377823694E+00 -0.40184025024E+02  0.40189081971E+02  0.00000000000E+00 0.  1.
        -15    1    1    2    0    0 -0.91651699695E-01 -0.18570276372E+01 -0.78102891230E+00  0.26878777579E+01  0.17770000000E+01 0. -1.
         15    1    1    2    0    0 -0.92824027108E+00  0.95206449342E+00 -0.33395545538E+01  0.40097893234E+01  0.17770000000E+01 0. -1.
</event>
<event>
 6    1  0.3691007E-002  0.4663170E+02  0.7546771E-02  0.1313128E+00
        -11   -1    0    0    0    0  0.00000000000E+00  0.00000000000E+00  0.45600000000E+02  0.45600000000E+02  0.00000000000E+00 0.  1.
         11   -1    0    0    0    0 -0.00000000000E+00 -0.00000000000E+00 -0.45600000000E+02  0.45600000000E+02  0.00000000000E+00 0.  1.
        -11    1    1    2    0    0  0.20219335461E+01 -0.15818042178E+01  0.33073844517E+02  0.33173325292E+02  0.00000000000E+00 0.  1.
         11    1    1    2    0    0 -0.29335722956E+01  0.85534049722E+00 -0.44463419975E+02  0.44568297809E+02  0.00000000000E+00 0.  1.
        -15    1    1    2    0    0  0.11256508214E+01 -0.83988186574E+00  0.50980433665E+00  0.23216633653E+01  0.17770000000E+01 0. -1.
         15    1    1    2    0    0 -0.21401207185E+00  0.15663455863E+01  0.10879771121E+02  0.11136713533E+02  0.17770000000E+01 0.  1.
</event>
<event>
 6    1  0.3691007E-002  0.4592069E+02  0.7546771E-02  0.1316540E+00
        -11   -1    0    0    0    0  0.00000000000E+00  0.00000000000E+00  0.45600000000E+02  0.45600000000E+02  0.00000000000E+00 0.  1.
         11   -1    0    0    0    0 -0.00000000000E+00 -0.00000000000E+00 -0.45600000000E+02  0.45600000000E+02  0.00000000000E+00 0.  1.
        -11    1    1    2    0    0  0.65550731453E+00 -0.34155320314E+00  0.45273278720E+02  0.45279312213E+02  0.00000000000E+00 0.  1.
         11    1    1    2    0    0 -0.14444313820E+01 -0.19540636721E+00 -0.22115250436E+02  0.22163232334E+02  0.00000000000E+00 0.  1.
        -15    1    1    2    0    0  0.13073252634E+01 -0.81666119211E+00 -0.59638283246E+01  0.64110071075E+01  0.17770000000E+01 0.  1.
         15    1    1    2    0    0 -0.51840119589E+00  0.13536207625E+01 -0.17194199959E+02  0.17346448345E+02  0.17770000000E+01 0.  1.
</event>
<event>
 6    1  0.3691007E-002  0.4672911E+02  0.7546771E-02  0.1312666E+00
        -11   -1    0    0    0    0  0.00000000000E+00  0.00000000000E+00  0.45600000000E+02  0.45600000000E+02  0.00000000000E+00 0. -1.
         11   -1    0    0    0    0 -0.00000000000E+00 -0.00000000000E+00 -0.45600000000E+02  0.45600000000E+02  0.00000000000E+00 0.  1.
        -11    1    1    2    0    0 -0.19122713670E+01  0.23202370441E+00  0.44429154962E+02  0.44470894161E+02  0.00000000000E+00 0. -1.
         11    1    1    2    0    0  0.59411643306E+00  0.46644746147E+00 -0.39467727881E+02  0.39474955246E+02  0.00000000000E+00 0.  1.
        -15    1    1    2    0    0  0.13881651876E+01 -0.14573280894E+00 -0.48941832410E+01  0.53906399653E+01  0.17770000000E+01 0. -1.
         15    1    1    2    0    0 -0.70010253595E-01 -0.55273835694E+00 -0.67243840018E-01  0.18635106281E+01  0.17770000000E+01 0.  1.
</event>
<event>
 6    1  0.3691007E-002  0.5498160E+02  0.7546771E-02  0.1277655E+00
        -11   -1    0    0    0    0  0.00000000000E+00  0.00000000000E+00  0.45600000000E+02  0.45600000000E+02  0.00000000000E+00 0.  1.
         11   -1    0    0    0    0 -0.00000000000E+00 -0.00000000000E+00 -0.45600000000E+02  0.45600000000E+02  0.00000000000E+00 0.  1.
        -11    1    1    2    0    0 -0.70468329588E+00 -0.31562399241E+00  0.36210171292E+02  0.36218402809E+02  0.00000000000E+00 0.  1.
         11    1    1    2    0    0 -0.16257783381E+00 -0.72855529657E+00 -0.25142735256E+02  0.25153814035E+02  0.00000000000E+00 0.  1.
        -15    1    1    2    0    0 -0.35853281164E+01 -0.34329467282E+01 -0.18894028569E+02  0.19615854442E+02  0.17770000000E+01 0. -1.
         15    1    1    2    0    0  0.44525892460E+01  0.44771260172E+01  0.78265925331E+01  0.10211928713E+02  0.17770000000E+01 0.  1.
</event>
<event>
 6    1  0.3691007E-002  0.4706380E+02  0.7546771E-02  0.1311088E+00
        -11   -1    0    0    0    0  0.00000000000E+00  0.00000000000E+00  0.45600000000E+02  0.45600000000E+02  0.00000000000E+00 0.  1.
         11   -1    0    0    0    0 -0.00000000000E+00 -0.00000000000E+00 -0.45600000000E+02  0.45600000000E+02  0.00000000000E+00 0.  1.
        -11    1    1    2    0    0  0.13180734312E+01 -0.11506186060E+00  0.41825099328E+02  0.41846021204E+02  0.00000000000E+00 0.  1.
         11    1    1    2    0    0 -0.80534259701E+00  0.17730338092E+00 -0.44128499652E+02  0.44136203901E+02  0.00000000000E+00 0.  1.
        -15    1    1    2    0    0  0.11171466186E+01  0.36196997037E+00  0.53070666091E+00  0.21950893801E+01  0.17770000000E+01 0.  1.
         15    1    1    2    0    0 -0.16298774527E+01 -0.42421149068E+00  0.17726936632E+01  0.30226855151E+01  0.17770000000E+01 0. -1.
</event>
<event>
 6    1  0.3691007E-002  0.3537522E+02  0.7546771E-02  0.1377389E+00
        -11   -1    0    0    0    0  0.00000000000E+00  0.00000000000E+00  0.45600000000E+02  0.45600000000E+02  0.00000000000E+00 0. -1.
         11   -1    0    0    0    0 -0.00000000000E+00 -0.00000000000E+00 -0.45600000000E+02  0.45600000000E+02  0.00000000000E+00 0.  1.
        -11    1    1    2    0    0 -0.22244393792E+01 -0.50741554400E+01  0.34307403484E+02  0.34751879342E+02  0.00000000000E+00 0. -1.
         11    1    1    2    0    0 -0.62418806182E+00  0.10917061450E+02 -0.34610897243E+02  0.36297190654E+02  0.00000000000E+00 0.  1.
        -15    1    1    2    0    0 -0.44304143507E+01 -0.85704401094E+01 -0.45523569860E+01  0.10814929409E+02  0.17770000000E+01 0.  1.
         15    1    1    2    0    0  0.72790417916E+01  0.27275340993E+01  0.48558507449E+01  0.93360005957E+01  0.17770000000E+01 0. -1.
</event>
<event>
 6    1  0.3691007E-002  0.4127328E+02  0.7546771E-02  0.1340747E+00
        -11   -1    0    0    0    0  0.00000000000E+00  0.00000000000E+00  0.45600000000E+02  0.45600000000E+02  0.00000000000E+00 0. -1.
         11   -1    0    0    0    0 -0.00000000000E+00 -0.00000000000E+00 -0.45600000000E+02  0.45600000000E+02  0.00000000000E+00 0. -1.
        -11    1    1    2    0    0 -0.25895903129E+01  0.34530435353E+01  0.40987232227E+02  0.41213865304E+02  0.00000000000E+00 0. -1.
         11    1    1    2    0    0 -0.38483049566E+00  0.16437394565E+01 -0.41510710166E+02  0.41545024159E+02  0.00000000000E+00 0. -1.
        -15    1    1    2    0    0  0.20364075498E+01  0.14839918183E+00  0.78440797885E+00  0.28181559402E+01  0.17770000000E+01 0.  1.
         15    1    1    2    0    0  0.93801325879E+00 -0.52451821736E+01 -0.26093004037E+00  0.56229545965E+01  0.17770000000E+01 0. -1.
</event>
<event>
 6    1  0.3691007E-002  0.4612476E+02  0.7546771E-02  0.1315553E+00
        -11   -1    0    0    0    0  0.00000000000E+00  0.00000000000E+00  0.45600000000E+02  0.45600000000E+02  0.00000000000E+00 0. -1.
         11   -1    0    0    0    0 -0.00000000000E+00 -0.00000000000E+00 -0.45600000000E+02  0.45600000000E+02  0.00000000000E+00 0. -1.
        -11    1    1    2    0    0  0.50323884684E+00 -0.10499405646E-01  0.29079337420E+02  0.29083693444E+02  0.00000000000E+00 0. -1.
         11    1    1    2    0    0  0.18342436568E+01  0.13644416464E+01 -0.45017235006E+02  0.45075243742E+02  0.00000000000E+00 0. -1.
        -15    1    1    2    0    0  0.32769518575E+00 -0.19106600903E+01  0.52861354444E+01  0.59041479531E+01  0.17770000000E+01 0.  1.
         15    1    1    2    0    0 -0.26651776894E+01  0.55671784954E+00  0.10651762142E+02  0.11136914861E+02  0.17770000000E+01 0. -1.
</event>
<event>
 6    1  0.3691007E-002  0.4955898E+02  0.7546771E-02  0.1299783E+00
        -11   -1    0    0    0    0  0.00000000000E+00  0.00000000000E+00  0.45600000000E+02  0.45600000000E+02  0.00000000000E+00 0. -1.
         11   -1    0    0    0    0 -0.00000000000E+00 -0.00000000000E+00 -0.45600000000E+02  0.45600000000E+02  0.00000000000E+00 0.  1.
        -11    1    1    2    0    0 -0.14774087495E+00  0.49349823439E+00  0.16430558694E+02  0.16438632147E+02  0.00000000000E+00 0. -1.
         11    1    1    2    0    0 -0.25419139131E+00 -0.10341849391E+01 -0.41627397345E+02  0.41641017776E+02  0.00000000000E+00 0.  1.
        -15    1    1    2    0    0  0.22987707967E+01 -0.22874292873E+01  0.28076945154E+02  0.28319414861E+02  0.17770000000E+01 0. -1.
         15    1    1    2    0    0 -0.18968385304E+01  0.28281159919E+01 -0.28801065031E+01  0.48009352155E+01  0.17770000000E+01 0.  1.
</event>
<event>
 6    1  0.3691007E-002  0.4665666E+02  0.7546771E-02  0.1313009E+00
        -11   -1    0    0    0    0  0.00000000000E+00  0.00000000000E+00  0.45600000000E+02  0.45600000000E+02  0.00000000000E+00 0. -1.
         11   -1    0    0    0    0 -0.00000000000E+00 -0.00000000000E+00 -0.45600000000E+02  0.45600000000E+02  0.00000000000E+00 0.  1.
        -11    1    1    2    0    0 -0.10159154761E+01 -0.14125278353E+01  0.44509345486E+02  0.44543340183E+02  0.00000000000E+00 0. -1.
         11    1    1    2    0    0  0.41224486495E+00 -0.50959046287E+00 -0.41049303434E+02  0.41054536177E+02  0.00000000000E+00 0.  1.
        -15    1    1    2    0    0 -0.88254564391E-02  0.12449949553E+01 -0.27018976952E+01  0.34652662932E+01  0.17770000000E+01 0. -1.
         15    1    1    2    0    0  0.61249606757E+00  0.67712334284E+00 -0.75814435640E+00  0.21368573465E+01  0.17770000000E+01 0.  1.
</event>
<event>
 6    1  0.3691007E-002  0.4723910E+02  0.7546771E-02  0.1310268E+00
        -11   -1    0    0    0    0  0.00000000000E+00  0.00000000000E+00  0.45600000000E+02  0.45600000000E+02  0.00000000000E+00 0.  1.
         11   -1    0    0    0    0 -0.00000000000E+00 -0.00000000000E+00 -0.45600000000E+02  0.45600000000E+02  0.00000000000E+00 0. -1.
        -11    1    1    2    0    0 -0.37785305260E+01  0.28405973617E+00  0.34184523028E+02  0.34393888956E+02  0.00000000000E+00 0.  1.
         11    1    1    2    0    0  0.89865990396E+00 -0.20699847506E+00 -0.43951225946E+02  0.43960899674E+02  0.00000000000E+00 0. -1.
        -15    1    1    2    0    0 -0.14981190494E+00  0.13815155522E+01  0.85644157614E+01  0.88565216175E+01  0.17770000000E+01 0. -1.
         15    1    1    2    0    0  0.30296825270E+01 -0.14585768133E+01  0.12022871571E+01  0.39886897526E+01  0.17770000000E+01 0.  1.
</event>
<event>
 6    1  0.3691007E-002  0.4805411E+02  0.7546771E-02  0.1306507E+00
        -11   -1    0    0    0    0  0.00000000000E+00  0.00000000000E+00  0.45600000000E+02  0.45600000000E+02  0.00000000000E+00 0.  1.
         11   -1    0    0    0    0 -0.00000000000E+00 -0.00000000000E+00 -0.45600000000E+02  0.45600000000E+02  0.00000000000E+00 0.  1.
        -11    1    1    2    0    0  0.29904177362E+01 -0.13264210595E+01  0.36838071135E+02  0.36983043088E+02  0.00000000000E+00 0.  1.
         11    1    1    2    0    0 -0.23752396938E+00 -0.75771768599E+00 -0.43138577508E+02  0.43145885356E+02  0.00000000000E+00 0.  1.
        -15    1    1    2    0    0 -0.42578960517E+00  0.11029961473E+01  0.74700612750E+01  0.77690051964E+01  0.17770000000E+01 0. -1.
         15    1    1    2    0    0 -0.23271041617E+01  0.98114259819E+00 -0.11695549027E+01  0.33020663603E+01  0.17770000000E+01 0. -1.
</event>
<event>
 6    1  0.3691007E-002  0.2264326E+02  0.7546771E-02  0.1496027E+00
        -11   -1    0    0    0    0  0.00000000000E+00  0.00000000000E+00  0.45600000000E+02  0.45600000000E+02  0.00000000000E+00 0. -1.
         11   -1    0    0    0    0 -0.00000000000E+00 -0.00000000000E+00 -0.45600000000E+02  0.45600000000E+02  0.00000000000E+00 0. -1.
        -11    1    1    2    0    0 -0.62193668642E+01  0.55302258037E+00  0.23329786142E+02  0.24150885689E+02  0.00000000000E+00 0. -1.
         11    1    1    2    0    0 -0.10058688601E+01 -0.17033577336E+01 -0.21024687393E+02  0.21117544358E+02  0.00000000000E+00 0. -1.
        -15    1    1    2    0    0 -0.12327105838E+02  0.15688248197E+02 -0.66759651531E+01  0.21114092677E+02  0.17770000000E+01 0.  1.
         15    1    1    2    0    0  0.19552341563E+02 -0.14537913044E+02  0.43708664041E+01  0.24817477276E+02  0.17770000000E+01 0. -1.
</event>
<event>
 6    1  0.3691007E-002  0.4734407E+02  0.7546771E-02  0.1309779E+00
        -11   -1    0    0    0    0  0.00000000000E+00  0.00000000000E+00  0.45600000000E+02  0.45600000000E+02  0.00000000000E+00 0.  1.
         11   -1    0    0    0    0 -0.00000000000E+00 -0.00000000000E+00 -0.45600000000E+02  0.45600000000E+02  0.00000000000E+00 0. -1.
        -11    1    1    2    0    0 -0.16165260138E-01  0.82439975975E+00  0.43848174402E+02  0.43855926563E+02  0.00000000000E+00 0.  1.
         11    1    1    2    0    0  0.20401069302E+01  0.43041328535E+00 -0.24761918972E+02  0.24849545731E+02  0.00000000000E+00 0. -1.
        -15    1    1    2    0    0 -0.31812489197E+01  0.17475552853E+01 -0.18293066747E+02  0.18734148344E+02  0.17770000000E+01 0. -1.
         15    1    1    2    0    0  0.11573072496E+01 -0.30023683304E+01 -0.79318868315E+00  0.37603793623E+01  0.17770000000E+01 0. -1.
</event>
<event>
 6    1  0.3691007E-002  0.4688642E+02  0.7546771E-02  0.1311922E+00
        -11   -1    0    0    0    0  0.00000000000E+00  0.00000000000E+00  0.45600000000E+02  0.45600000000E+02  0.00000000000E+00 0. -1.
         11   -1    0    0    0    0 -0.00000000000E+00 -0.00000000000E+00 -0.45600000000E+02  0.45600000000E+02  0.00000000000E+00 0. -1.
        -11    1    1    2    0    0  0.53713526146E+00  0.28783415088E+00  0.44309393375E+02  0.44313583742E+02  0.00000000000E+00 0. -1.
         11    1    1    2    0    0 -0.41830028817E+00  0.91185713354E+00 -0.32468548769E+02  0.32484044049E+02  0.00000000000E+00 0. -1.
        -15    1    1    2    0    0 -0.18181116362E+01 -0.14692201864E+01 -0.11543527544E+02  0.11911124843E+02  0.17770000000E+01 0. -1.
         15    1    1    2    0    0  0.16992766629E+01  0.26952890193E+00 -0.29731706144E+00  0.24912473665E+01  0.17770000000E+01 0. -1.
</event>
<event>
 6    1  0.3691007E-002  0.4759958E+02  0.7546771E-02  0.1308594E+00
        -11   -1    0    0    0    0  0.00000000000E+00  0.00000000000E+00  0.45600000000E+02  0.45600000000E+02  0.00000000000E+00 0. -1.
         11   -1    0    0    0    0 -0.00000000000E+00 -0.00000000000E+00 -0.45600000000E+02  0.45600000000E+02  0.00000000000E+00 0.  1.
        -11    1    1    2    0    0  0.44510178563E+01 -0.15197023067E+01  0.43345997743E+02  0.43600419441E+02  0.00000000000E+00 0. -1.
         11    1    1    2    0    0 -0.11446832938E+00 -0.10439066798E+01 -0.35966617613E+02  0.35981945844E+02  0.00000000000E+00 0.  1.
        -15    1    1    2    0    0  0.74633347288E+00  0.14039035026E+01 -0.51505916119E+01  0.56757626491E+01  0.17770000000E+01 0.  1.
         15    1    1    2    0    0 -0.50828829998E+01  0.11597054839E+01 -0.22287885177E+01  0.59418720666E+01  0.17770000000E+01 0.  1.
</event>
<event>
 6    1  0.3691007E-002  0.4622701E+02  0.7546771E-02  0.1315061E+00
        -11   -1    0    0    0    0  0.00000000000E+00  0.00000000000E+00  0.45600000000E+02  0.45600000000E+02  0.00000000000E+00 0. -1.
         11   -1    0    0    0    0 -0.00000000000E+00 -0.00000000000E+00 -0.45600000000E+02  0.45600000000E+02  0.00000000000E+00 0.  1.
        -11    1    1    2    0    0  0.14890353996E+01 -0.90929526270E+00  0.44939131483E+02  0.44972987256E+02  0.00000000000E+00 0. -1.
         11    1    1    2    0    0  0.51464223122E+00  0.25409498146E+01 -0.30560269282E+02  0.30670039798E+02  0.00000000000E+00 0.  1.
        -15    1    1    2    0    0 -0.10377292941E+01 -0.94541964696E+00 -0.20827049346E+01  0.30767010322E+01  0.17770000000E+01 0.  1.
         15    1    1    2    0    0 -0.96594833670E+00 -0.68623490491E+00 -0.12296157266E+02  0.12480271914E+02  0.17770000000E+01 0. -1.
</event>
<event>
 6    1  0.3691007E-002  0.4871709E+02  0.7546771E-02  0.1303511E+00
        -11   -1    0    0    0    0  0.00000000000E+00  0.00000000000E+00  0.45600000000E+02  0.45600000000E+02  0.00000000000E+00 0.  1.
         11   -1    0    0    0    0 -0.00000000000E+00 -0.00000000000E+00 -0.45600000000E+02  0.45600000000E+02  0.00000000000E+00 0.  1.
        -11    1    1    2    0    0 -0.26686057762E+01 -0.30200491880E+01  0.42291316484E+02  0.42482909550E+02  0.00000000000E+00 0.  1.
         11    1    1    2    0    0 -0.31604015197E+00 -0.58508413811E+00 -0.37145741523E+02  0.37151693342E+02  0.00000000000E+00 0.  1.
        -15    1    1    2    0    0  0.66037863559E-01  0.85979716666E+00 -0.66453409793E+01  0.69326688871E+01  0.17770000000E+01 0.  1.
         15    1    1    2    0    0  0.29186080646E+01  0.27453361594E+01  0.14997660188E+01  0.46327282215E+01  0.17770000000E+01 0.  1.
</event>
<event>
 6    1  0.5194597E-002  0.4621620E+02  0.7546771E-02  0.1315113E+00
        -11   -1    0    0    0    0  0.00000000000E+00  0.00000000000E+00  0.45600000000E+02  0.45600000000E+02  0.00000000000E+00 0. -1.
         11   -1    0    0    0    0 -0.00000000000E+00 -0.00000000000E+00 -0.45600000000E+02  0.45600000000E+02  0.00000000000E+00 0.  1.
        -11    1    1    2    0    0 -0.59963641949E+00  0.50204543823E+00  0.44977001726E+02  0.44983800393E+02  0.00000000000E+00 0. -1.
         11    1    1    2    0    0  0.52963978779E+00 -0.24005420443E+01 -0.10279187173E+02  0.10569049596E+02  0.00000000000E+00 0.  1.
        -15    1    1    2    0    0  0.10203855116E+01  0.27983101350E+01 -0.31879187050E+02  0.32067304566E+02  0.17770000000E+01 0.  1.
         15    1    1    2    0    0 -0.95038887990E+00 -0.89981352896E+00 -0.28186275035E+01  0.35798454455E+01  0.17770000000E+01 0. -1.
</event>
<event>
 6    1  0.3691007E-002  0.4120963E+02  0.7546771E-02  0.1341103E+00
        -11   -1    0    0    0    0  0.00000000000E+00  0.00000000000E+00  0.45600000000E+02  0.45600000000E+02  0.00000000000E+00 0.  1.
         11   -1    0    0    0    0 -0.00000000000E+00 -0.00000000000E+00 -0.45600000000E+02  0.45600000000E+02  0.00000000000E+00 0. -1.
        -11    1    1    2    0    0 -0.89617259233E+00 -0.17079064822E+00  0.41055823197E+02  0.41065958082E+02  0.00000000000E+00 0.  1.
         11    1    1    2    0    0  0.19917174483E+00 -0.70171837778E+00 -0.41354968816E+02  0.41361401377E+02  0.00000000000E+00 0. -1.
        -15    1    1    2    0    0 -0.25014337563E+01  0.29874422709E+01  0.12084737786E+01  0.44497325799E+01  0.17770000000E+01 0.  1.
         15    1    1    2    0    0  0.31984346038E+01 -0.21149332449E+01 -0.90932815974E+00  0.43229079619E+01  0.17770000000E+01 0. -1.
</event>
<event>
 6    1  0.3691007E-002  0.4713336E+02  0.7546771E-02  0.1310762E+00
        -11   -1    0    0    0    0  0.00000000000E+00  0.00000000000E+00  0.45600000000E+02  0.45600000000E+02  0.00000000000E+00 0. -1.
         11   -1    0    0    0    0 -0.00000000000E+00 -0.00000000000E+00 -0.45600000000E+02  0.45600000000E+02  0.00000000000E+00 0. -1.
        -11    1    1    2    0    0  0.53740283018E+00  0.37277468727E+00  0.38802309361E+02  0.38807821048E+02  0.00000000000E+00 0. -1.
         11    1    1    2    0    0 -0.83466335565E+00 -0.67654918968E-01 -0.44058683031E+02  0.44066640337E+02  0.00000000000E+00 0. -1.
        -15    1    1    2    0    0  0.22213870252E+01  0.13154323540E+01  0.37791282565E+01  0.49096295148E+01  0.17770000000E+01 0.  1.
         15    1    1    2    0    0 -0.19241264997E+01 -0.16205521223E+01  0.14772454137E+01  0.34159091002E+01  0.17770000000E+01 0.  1.
</event>
<event>
 6    1  0.3691007E-002  0.4585389E+02  0.7546771E-02  0.1316864E+00
        -11   -1    0    0    0    0  0.00000000000E+00  0.00000000000E+00  0.45600000000E+02  0.45600000000E+02  0.00000000000E+00 0. -1.
         11   -1    0    0    0    0 -0.00000000000E+00 -0.00000000000E+00 -0.45600000000E+02  0.45600000000E+02  0.00000000000E+00 0.  1.
        -11    1    1    2    0    0 -0.61205156918E+00  0.17738425163E+00  0.45341632739E+02  0.45346110437E+02  0.00000000000E+00 0. -1.
         11    1    1    2    0    0 -0.17631197790E+00  0.10764302375E+01 -0.26011500867E+02  0.26034361243E+02  0.00000000000E+00 0.  1.
        -15    1    1    2    0    0 -0.62947160852E+00 -0.28799670419E+00 -0.83449620074E+01  0.85600990948E+01  0.17770000000E+01 0. -1.
         15    1    1    2    0    0  0.14178351556E+01 -0.96581778496E+00 -0.10985169865E+02  0.11259429226E+02  0.17770000000E+01 0.  1.
</event>
<event>
 6    1  0.3691007E-002  0.4803428E+02  0.7546771E-02  0.1306598E+00
        -11   -1    0    0    0    0  0.00000000000E+00  0.00000000000E+00  0.45600000000E+02  0.45600000000E+02  0.00000000000E+00 0. -1.
         11   -1    0    0    0    0 -0.00000000000E+00 -0.00000000000E+00 -0.45600000000E+02  0.45600000000E+02  0.00000000000E+00 0. -1.
        -11    1    1    2    0    0  0.13666490868E+01 -0.10413509948E+01  0.43131509889E+02  0.43165718886E+02  0.00000000000E+00 0. -1.
         11    1    1    2    0    0 -0.62321389736E+00 -0.41595817087E+00 -0.42069415158E+02  0.42076087134E+02  0.00000000000E+00 0. -1.
        -15    1    1    2    0    0 -0.14030947407E+00  0.96720873231E+00 -0.27295150432E+01  0.34004647994E+01  0.17770000000E+01 0. -1.
         15    1    1    2    0    0 -0.60312571532E+00  0.49010043337E+00  0.16674203121E+01  0.25577291804E+01  0.17770000000E+01 0. -1.
</event>
<event>
 6    1  0.3691007E-002  0.4719515E+02  0.7546771E-02  0.1310473E+00
        -11   -1    0    0    0    0  0.00000000000E+00  0.00000000000E+00  0.45600000000E+02  0.45600000000E+02  0.00000000000E+00 0. -1.
         11   -1    0    0    0    0 -0.00000000000E+00 -0.00000000000E+00 -0.45600000000E+02  0.45600000000E+02  0.00000000000E+00 0.  1.
        -11    1    1    2    0    0 -0.62924028125E+00 -0.53377116661E+00  0.43997110315E+02  0.44004847131E+02  0.00000000000E+00 0. -1.
         11    1    1    2    0    0  0.44164215461E-01  0.46876175440E+01 -0.37313906071E+02  0.37607223973E+02  0.00000000000E+00 0.  1.
        -15    1    1    2    0    0  0.22004255304E+01 -0.15089437580E+01 -0.39656934425E+01  0.50993369431E+01  0.17770000000E+01 0. -1.
         15    1    1    2    0    0 -0.16153494647E+01 -0.26449026193E+01 -0.27175108014E+01  0.44885919523E+01  0.17770000000E+01 0. -1.
</event>
<event>
 6    1  0.3691007E-002  0.4740122E+02  0.7546771E-02  0.1309513E+00
        -11   -1    0    0    0    0  0.00000000000E+00  0.00000000000E+00  0.45600000000E+02  0.45600000000E+02  0.00000000000E+00 0.  1.
         11   -1    0    0    0    0 -0.00000000000E+00 -0.00000000000E+00 -0.45600000000E+02  0.45600000000E+02  0.00000000000E+00 0. -1.
        -11    1    1    2    0    0  0.17381374416E+01  0.47475589854E-01  0.43764252941E+02  0.43798780933E+02  0.00000000000E+00 0.  1.
         11    1    1    2    0    0 -0.19986718674E-01 -0.75460833872E+00 -0.35972341618E+02  0.35980261181E+02  0.00000000000E+00 0. -1.
        -15    1    1    2    0    0  0.12126846503E+01  0.33674920663E+01 -0.33911973625E+01  0.52410452611E+01  0.17770000000E+01 0.  1.
         15    1    1    2    0    0 -0.29308353733E+01 -0.26603593174E+01 -0.44007139608E+01  0.61799126246E+01  0.17770000000E+01 0.  1.
</event>
<event>
 6    1  0.3691007E-002  0.4907027E+02  0.7546771E-02  0.1301937E+00
        -11   -1    0    0    0    0  0.00000000000E+00  0.00000000000E+00  0.45600000000E+02  0.45600000000E+02  0.00000000000E+00 0.  1.
         11   -1    0    0    0    0 -0.00000000000E+00 -0.00000000000E+00 -0.45600000000E+02  0.45600000000E+02  0.00000000000E+00 0.  1.
        -11    1    1    2    0    0 -0.92476437631E-01 -0.75326219498E+00  0.26415325775E+02  0.26426225452E+02  0.00000000000E+00 0.  1.
         11    1    1    2    0    0 -0.12201848869E+00  0.12105206054E+01 -0.42112163116E+02  0.42129734522E+02  0.00000000000E+00 0.  1.
        -15    1    1    2    0    0 -0.33906051536E+01  0.23145824120E+01 -0.15384632391E+01  0.47305489309E+01  0.17770000000E+01 0. -1.
         15    1    1    2    0    0  0.36051000799E+01 -0.27718408224E+01  0.17235300580E+02  0.17913491095E+02  0.17770000000E+01 0.  1.
</event>
<event>
 6    1  0.3691007E-002  0.4606887E+02  0.7546771E-02  0.1315823E+00
        -11   -1    0    0    0    0  0.00000000000E+00  0.00000000000E+00  0.45600000000E+02  0.45600000000E+02  0.00000000000E+00 0.  1.
         11   -1    0    0    0    0 -0.00000000000E+00 -0.00000000000E+00 -0.45600000000E+02  0.45600000000E+02  0.00000000000E+00 0. -1.
        -11    1    1    2    0    0  0.10249491311E+01 -0.67942183175E+00  0.61162091875E+01  0.62386015718E+01  0.00000000000E+00 0.  1.
         11    1    1    2    0    0 -0.80195315414E+00 -0.12180052297E+00 -0.45123840067E+02  0.45131130127E+02  0.00000000000E+00 0. -1.
        -15    1    1    2    0    0  0.65444723532E+00  0.10173189528E+01  0.26241731096E+01  0.33922341524E+01  0.17770000000E+01 0.  1.
         15    1    1    2    0    0 -0.87744321223E+00 -0.21609659806E+00  0.36383457770E+02  0.36438034148E+02  0.17770000000E+01 0.  1.
</event>
<event>
 6    1  0.3691007E-002  0.4703272E+02  0.7546771E-02  0.1311234E+00
        -11   -1    0    0    0    0  0.00000000000E+00  0.00000000000E+00  0.45600000000E+02  0.45600000000E+02  0.00000000000E+00 0.  1.
         11   -1    0    0    0    0 -0.00000000000E+00 -0.00000000000E+00 -0.45600000000E+02  0.45600000000E+02  0.00000000000E+00 0.  1.
        -11    1    1    2    0    0 -0.19736280511E+01 -0.25022580392E+01  0.44052153946E+02  0.44167281672E+02  0.00000000000E+00 0.  1.
         11    1    1    2    0    0 -0.77601083830E-01 -0.12637528367E+01 -0.36474581932E+02  0.36496550799E+02  0.00000000000E+00 0.  1.
        -15    1    1    2    0    0  0.30256878822E+01  0.24950920149E+01 -0.67472900364E+01  0.80039942003E+01  0.17770000000E+01 0. -1.
         15    1    1    2    0    0 -0.97445874731E+00  0.12709188610E+01 -0.83028197849E+00  0.25321733284E+01  0.17770000000E+01 0.  1.
</event>
<event>
 6    1  0.3691007E-002  0.9120000E+02  0.7546771E-02  0.1179977E+00
        -11   -1    0    0    0    0  0.00000000000E+00  0.00000000000E+00  0.45600000000E+02  0.45600000000E+02  0.00000000000E+00 0. -1.
         11   -1    0    0    0    0 -0.00000000000E+00 -0.00000000000E+00 -0.45600000000E+02  0.45600000000E+02  0.00000000000E+00 0.  1.
        -11    1    1    2    0    0 -0.10053688996E+01 -0.93333347693E+00 -0.11823135841E+01  0.18110061885E+01  0.00000000000E+00 0. -1.
         11    1    1    2    0    0  0.42581168962E+00 -0.39570175637E+01 -0.42499924841E+02  0.42685863176E+02  0.00000000000E+00 0.  1.
        -15    1    1    2    0    0 -0.51717875533E+00  0.47760325178E+01  0.44242540392E+02  0.44538051931E+02  0.17770000000E+01 0. -1.
         15    1    1    2    0    0  0.10967359653E+01  0.11431852280E+00 -0.56030196642E+00  0.21650787043E+01  0.17770000000E+01 0.  1.
</event>
<event>
 6    1  0.3691007E-002  0.5076454E+02  0.7546771E-02  0.1294592E+00
        -11   -1    0    0    0    0  0.00000000000E+00  0.00000000000E+00  0.45600000000E+02  0.45600000000E+02  0.00000000000E+00 0. -1.
         11   -1    0    0    0    0 -0.00000000000E+00 -0.00000000000E+00 -0.45600000000E+02  0.45600000000E+02  0.00000000000E+00 0. -1.
        -11    1    1    2    0    0  0.56529284031E-01 -0.21060692994E+01  0.40380535314E+02  0.40435459138E+02  0.00000000000E+00 0. -1.
         11    1    1    2    0    0  0.12410821449E+01  0.32948252751E+01 -0.37282722258E+02  0.37448598605E+02  0.00000000000E+00 0. -1.
        -15    1    1    2    0    0  0.24417787728E+01 -0.49484277696E+01 -0.47389497978E+01  0.74876294748E+01  0.17770000000E+01 0.  1.
         15    1    1    2    0    0 -0.37393902017E+01  0.37596717939E+01  0.16411367416E+01  0.58283127819E+01  0.17770000000E+01 0. -1.
</event>
<event>
 6    1  0.3691007E-002  0.4697965E+02  0.7546771E-02  0.1311483E+00
        -11   -1    0    0    0    0  0.00000000000E+00  0.00000000000E+00  0.45600000000E+02  0.45600000000E+02  0.00000000000E+00 0. -1.
         11   -1    0    0    0    0 -0.00000000000E+00 -0.00000000000E+00 -0.45600000000E+02  0.45600000000E+02  0.00000000000E+00 0.  1.
        -11    1    1    2    0    0  0.24145386322E+01  0.34296096180E+00  0.44153052445E+02  0.44220353450E+02  0.00000000000E+00 0. -1.
         11    1    1    2    0    0 -0.19151464493E+01  0.14772283170E+01 -0.36439936004E+02  0.36520116723E+02  0.00000000000E+00 0.  1.
        -15    1    1    2    0    0 -0.87771646785E+00 -0.14854250176E+01 -0.81860503359E+01  0.85525448132E+01  0.17770000000E+01 0.  1.
         15    1    1    2    0    0  0.37832428491E+00 -0.33476426121E+00  0.47293389540E+00  0.19069850142E+01  0.17770000000E+01 0.  1.
</event>
<event>
 6    1  0.3691007E-002  0.5200283E+02  0.7546771E-02  0.1289428E+00
        -11   -1    0    0    0    0  0.00000000000E+00  0.00000000000E+00  0.45600000000E+02  0.45600000000E+02  0.00000000000E+00 0. -1.
         11   -1    0    0    0    0 -0.00000000000E+00 -0.00000000000E+00 -0.45600000000E+02  0.45600000000E+02  0.00000000000E+00 0. -1.
        -11    1    1    2    0    0 -0.14120940745E+01  0.15337836855E+01  0.39141691576E+02  0.39197174918E+02  0.00000000000E+00 0. -1.
         11    1    1    2    0    0  0.14875978595E+01  0.74554370959E+00 -0.28893695043E+02  0.28941568652E+02  0.00000000000E+00 0. -1.
        -15    1    1    2    0    0  0.17376010329E+01 -0.62822579888E+01 -0.14936965923E+02  0.16393800742E+02  0.17770000000E+01 0. -1.
         15    1    1    2    0    0 -0.18131048179E+01  0.40029305937E+01  0.46889693893E+01  0.66674556881E+01  0.17770000000E+01 0.  1.
</event>
<event>
 6    1  0.3691007E-002  0.4614896E+02  0.7546771E-02  0.1315437E+00
        -11   -1    0    0    0    0  0.00000000000E+00  0.00000000000E+00  0.45600000000E+02  0.45600000000E+02  0.00000000000E+00 0.  1.
         11   -1    0    0    0    0 -0.00000000000E+00 -0.00000000000E+00 -0.45600000000E+02  0.45600000000E+02  0.00000000000E+00 0. -1.
        -11    1    1    2    0    0  0.61982764391E+00 -0.27338692464E+01  0.26797096139E+02  0.26943321786E+02  0.00000000000E+00 0.  1.
         11    1    1    2    0    0 -0.15759328209E+00 -0.11074213630E+01 -0.45037156185E+02  0.45051044993E+02  0.00000000000E+00 0. -1.
        -15    1    1    2    0    0  0.51096787690E+00  0.47212767826E+00  0.39847480876E+01  0.44181375078E+01  0.17770000000E+01 0.  1.
         15    1    1    2    0    0 -0.97320223872E+00  0.33691629311E+01  0.14255311958E+02  0.14787495714E+02  0.17770000000E+01 0. -1.
</event>
<event>
 6    1  0.3691007E-002  0.4727361E+02  0.7546771E-02  0.1310107E+00
        -11   -1    0    0    0    0  0.00000000000E+00  0.00000000000E+00  0.45600000000E+02  0.45600000000E+02  0.00000000000E+00 0. -1.
         11   -1    0    0    0    0 -0.00000000000E+00 -0.00000000000E+00 -0.45600000000E+02  0.45600000000E+02  0.00000000000E+00 0. -1.
        -11    1    1    2    0    0 -0.13492848268E+01 -0.10756654506E+02  0.42567615738E+02  0.43926394062E+02  0.00000000000E+00 0. -1.
         11    1    1    2    0    0 -0.11267861248E+01 -0.85209071194E+00 -0.17268748779E+02  0.17326436158E+02  0.00000000000E+00 0. -1.
        -15    1    1    2    0    0  0.32988525128E+01  0.43394793148E+01 -0.19829590659E+02  0.20641799906E+02  0.17770000000E+01 0. -1.
         15    1    1    2    0    0 -0.82278156118E+00  0.72692659027E+01 -0.54692762996E+01  0.93053698746E+01  0.17770000000E+01 0.  1.
</event>
<event>
 6    1  0.3691007E-002  0.5126008E+02  0.7546771E-02  0.1292505E+00
        -11   -1    0    0    0    0  0.00000000000E+00  0.00000000000E+00  0.45600000000E+02  0.45600000000E+02  0.00000000000E+00 0.  1.
         11   -1    0    0    0    0 -0.00000000000E+00 -0.00000000000E+00 -0.45600000000E+02  0.45600000000E+02  0.00000000000E+00 0. -1.
        -11    1    1    2    0    0 -0.10067272992E+01 -0.65983021114E+00  0.26683570000E+02  0.26710705414E+02  0.00000000000E+00 0.  1.
         11    1    1    2    0    0 -0.26331747770E+00  0.61760248914E+01 -0.39458640591E+02  0.39939916585E+02  0.00000000000E+00 0. -1.
        -15    1    1    2    0    0 -0.62115166268E+01 -0.82565529307E+00  0.14017430735E+02  0.15456737653E+02  0.17770000000E+01 0. -1.
         15    1    1    2    0    0  0.74815614036E+01 -0.46905393872E+01 -0.12423601432E+01  0.90926403484E+01  0.17770000000E+01 0.  1.
</event>
<event>
 6    1  0.3691007E-002  0.4338164E+02  0.7546771E-02  0.1329331E+00
        -11   -1    0    0    0    0  0.00000000000E+00  0.00000000000E+00  0.45600000000E+02  0.45600000000E+02  0.00000000000E+00 0. -1.
         11   -1    0    0    0    0 -0.00000000000E+00 -0.00000000000E+00 -0.45600000000E+02  0.45600000000E+02  0.00000000000E+00 0. -1.
        -11    1    1    2    0    0  0.10089555424E+01  0.67031744299E-01  0.43001465212E+02  0.43013352519E+02  0.00000000000E+00 0. -1.
         11    1    1    2    0    0 -0.35884773478E+00  0.11668579474E+01 -0.43747310298E+02  0.43764340364E+02  0.00000000000E+00 0. -1.
        -15    1    1    2    0    0  0.49781167835E+00 -0.73276300810E+00  0.10179050075E+01  0.22312816267E+01  0.17770000000E+01 0. -1.
         15    1    1    2    0    0 -0.11479194860E+01 -0.50112668358E+00 -0.27205992104E+00  0.21910254905E+01  0.17770000000E+01 0.  1.
</event>
<event>
 6    1  0.3691007E-002  0.4825952E+02  0.7546771E-02  0.1305573E+00
        -11   -1    0    0    0    0  0.00000000000E+00  0.00000000000E+00  0.45600000000E+02  0.45600000000E+02  0.00000000000E+00 0.  1.
         11   -1    0    0    0    0 -0.00000000000E+00 -0.00000000000E+00 -0.45600000000E+02  0.45600000000E+02  0.00000000000E+00 0. -1.
        -11    1    1    2    0    0  0.21763774023E+01  0.10737574900E+01  0.42871842750E+02  0.42940475947E+02  0.00000000000E+00 0.  1.
         11    1    1    2    0    0  0.61064057659E+00  0.73090887396E-02 -0.31355321483E+02  0.31361267842E+02  0.00000000000E+00 0. -1.
        -15    1    1    2    0    0 -0.25215007686E+01  0.34320768214E+01 -0.24105433125E+00  0.46209256242E+01  0.17770000000E+01 0. -1.
         15    1    1    2    0    0 -0.26551721031E+00 -0.45131434001E+01 -0.11275466935E+02  0.12277330587E+02  0.17770000000E+01 0.  1.
</event>
<event>
 6    1  0.3691007E-002  0.4598154E+02  0.7546771E-02  0.1316245E+00
        -11   -1    0    0    0    0  0.00000000000E+00  0.00000000000E+00  0.45600000000E+02  0.45600000000E+02  0.00000000000E+00 0. -1.
         11   -1    0    0    0    0 -0.00000000000E+00 -0.00000000000E+00 -0.45600000000E+02  0.45600000000E+02  0.00000000000E+00 0.  1.
        -11    1    1    2    0    0  0.15116500465E+01  0.11647724933E+01  0.45178176553E+02  0.45218463237E+02  0.00000000000E+00 0. -1.
         11    1    1    2    0    0 -0.39002046065E+00 -0.19553258424E+01 -0.24757486655E+02  0.24837644022E+02  0.00000000000E+00 0.  1.
        -15    1    1    2    0    0 -0.11354503868E+01 -0.11677047572E+01 -0.57184922479E+01  0.62057767097E+01  0.17770000000E+01 0.  1.
         15    1    1    2    0    0  0.13820800980E-01  0.19582581064E+01 -0.14702197650E+02  0.14938116032E+02  0.17770000000E+01 0. -1.
</event>
<event>
 6    1  0.3691007E-002  0.4589752E+02  0.7546771E-02  0.1316652E+00
        -11   -1    0    0    0    0  0.00000000000E+00  0.00000000000E+00  0.45600000000E+02  0.45600000000E+02  0.00000000000E+00 0. -1.
         11   -1    0    0    0    0 -0.00000000000E+00 -0.00000000000E+00 -0.45600000000E+02  0.45600000000E+02  0.00000000000E+00 0.  1.
        -11    1    1    2    0    0 -0.95171754137E+00  0.40924175114E-01  0.27598350831E+02  0.27614786070E+02  0.00000000000E+00 0. -1.
         11    1    1    2    0    0  0.40964428217E+00  0.55398881016E+00 -0.45297244044E+02  0.45302483707E+02  0.00000000000E+00 0.  1.
        -15    1    1    2    0    0 -0.64474731977E-01 -0.64300604587E+00  0.36681448743E+01  0.41268183368E+01  0.17770000000E+01 0. -1.
         15    1    1    2    0    0  0.60654799117E+00  0.48093060586E-01  0.14030748338E+02  0.14155911887E+02  0.17770000000E+01 0.  1.
</event>
<event>
 6    1  0.3691007E-002  0.5038582E+02  0.7546771E-02  0.1296205E+00
        -11   -1    0    0    0    0  0.00000000000E+00  0.00000000000E+00  0.45600000000E+02  0.45600000000E+02  0.00000000000E+00 0.  1.
         11   -1    0    0    0    0 -0.00000000000E+00 -0.00000000000E+00 -0.45600000000E+02  0.45600000000E+02  0.00000000000E+00 0. -1.
        -11    1    1    2    0    0 -0.68636442750E+01 -0.14189027654E+02  0.37647828500E+02  0.40814177798E+02  0.00000000000E+00 0.  1.
         11    1    1    2    0    0  0.80154055286E+01  0.40611406957E+01 -0.23788040713E+02  0.25428536539E+02  0.00000000000E+00 0. -1.
        -15    1    1    2    0    0  0.18077214445E+01  0.12629022415E+02 -0.29079622927E+01  0.13205076209E+02  0.17770000000E+01 0.  1.
         15    1    1    2    0    0 -0.29594826981E+01 -0.25011354565E+01 -0.10951825495E+02  0.11752209455E+02  0.17770000000E+01 0. -1.
</event>
<event>
 6    1  0.3691007E-002  0.4993719E+02  0.7546771E-02  0.1298137E+00
        -11   -1    0    0    0    0  0.00000000000E+00  0.00000000000E+00  0.45600000000E+02  0.45600000000E+02  0.00000000000E+00 0. -1.
         11   -1    0    0    0    0 -0.00000000000E+00 -0.00000000000E+00 -0.45600000000E+02  0.45600000000E+02  0.00000000000E+00 0. -1.
        -11    1    1    2    0    0 -0.35558705974E+00 -0.19616890880E+01  0.41214619330E+02  0.41262810286E+02  0.00000000000E+00 0. -1.
         11    1    1    2    0    0  0.18080657576E+01 -0.94448880283E+00 -0.38836065254E+02  0.38889601763E+02  0.00000000000E+00 0. -1.
        -15    1    1    2    0    0 -0.56984408849E+00  0.24586949817E+01 -0.60830894036E+01  0.68214081383E+01  0.17770000000E+01 0.  1.
         15    1    1    2    0    0 -0.88263460940E+00  0.44748290920E+00  0.37045353279E+01  0.42261798120E+01  0.17770000000E+01 0.  1.
</event>
<event>
 6    1  0.3691007E-002  0.4337954E+02  0.7546771E-02  0.1329342E+00
        -11   -1    0    0    0    0  0.00000000000E+00  0.00000000000E+00  0.45600000000E+02  0.45600000000E+02  0.00000000000E+00 0. -1.
         11   -1    0    0    0    0 -0.00000000000E+00 -0.00000000000E+00 -0.45600000000E+02  0.45600000000E+02  0.00000000000E+00 0.  1.
        -11    1    1    2    0    0 -0.60312378327E+00  0.33122011207E+00  0.42966220075E+02  0.42971729458E+02  0.00000000000E+00 0. -1.
         11    1    1    2    0    0 -0.57297190153E+00 -0.11674167565E+01 -0.43783885991E+02  0.43803194303E+02  0.00000000000E+00 0.  1.
        -15    1    1    2    0    0  0.56025740662E-01  0.84965842966E+00  0.11751464979E+01  0.22942878246E+01  0.17770000000E+01 0. -1.
         15    1    1    2    0    0  0.11200699441E+01 -0.13461785222E-01 -0.35748058175E+00  0.21307884141E+01  0.17770000000E+01 0.  1.
</event>
<event>
 6    1  0.3691007E-002  0.4764718E+02  0.7546771E-02  0.1308374E+00
        -11   -1    0    0    0    0  0.00000000000E+00  0.00000000000E+00  0.45600000000E+02  0.45600000000E+02  0.00000000000E+00 0. -1.
         11   -1    0    0    0    0 -0.00000000000E+00 -0.00000000000E+00 -0.45600000000E+02  0.45600000000E+02  0.00000000000E+00 0.  1.
        -11    1    1    2    0    0 -0.34658457414E-01  0.25188149251E+01  0.43479908967E+02  0.43552819813E+02  0.00000000000E+00 0. -1.
         11    1    1    2    0    0 -0.15279026056E+01  0.83954481514E+00 -0.37116182108E+02  0.37157102903E+02  0.00000000000E+00 0.  1.
        -15    1    1    2    0    0 -0.14266375263E+01 -0.30508216739E-02  0.25716641931E+00  0.22932874888E+01  0.17770000000E+01 0.  1.
         15    1    1    2    0    0  0.29891985893E+01 -0.33553089185E+01 -0.66208932789E+01  0.81967897958E+01  0.17770000000E+01 0.  1.
</event>
<event>
 6    1  0.3691007E-002  0.4699696E+02  0.7546771E-02  0.1311402E+00
        -11   -1    0    0    0    0  0.00000000000E+00  0.00000000000E+00  0.45600000000E+02  0.45600000000E+02  0.00000000000E+00 0.  1.
         11   -1    0    0    0    0 -0.00000000000E+00 -0.00000000000E+00 -0.45600000000E+02  0.45600000000E+02  0.00000000000E+00 0. -1.
        -11    1    1    2    0    0  0.67953177553E+00  0.90522112573E-01  0.16568562080E+02  0.16582738227E+02  0.00000000000E+00 0.  1.
         11    1    1    2    0    0 -0.12983900370E+01  0.11519823027E+01 -0.44168942871E+02  0.44203036030E+02  0.00000000000E+00 0. -1.
        -15    1    1    2    0    0  0.20867272255E+01 -0.25164470917E+01  0.12391153531E+01  0.39217435328E+01  0.17770000000E+01 0.  1.
         15    1    1    2    0    0 -0.14678689640E+01  0.12739426765E+01  0.26361265437E+02  0.26492482211E+02  0.17770000000E+01 0.  1.
</event>
<event>
 6    1  0.3691007E-002  0.4718764E+02  0.7546771E-02  0.1310508E+00
        -11   -1    0    0    0    0  0.00000000000E+00  0.00000000000E+00  0.45600000000E+02  0.45600000000E+02  0.00000000000E+00 0. -1.
         11   -1    0    0    0    0 -0.00000000000E+00 -0.00000000000E+00 -0.45600000000E+02  0.45600000000E+02  0.00000000000E+00 0. -1.
        -11    1    1    2    0    0 -0.13973988453E+01  0.77227006960E+00  0.24950898992E+02  0.25001929627E+02  0.00000000000E+00 0. -1.
         11    1    1    2    0    0 -0.15411253308E+01  0.57205036545E+00 -0.43981654459E+02  0.44012364602E+02  0.00000000000E+00 0. -1.
        -15    1    1    2    0    0  0.34502903960E+01  0.26806645252E+01  0.16330574482E+02  0.16998113367E+02  0.17770000000E+01 0. -1.
         15    1    1    2    0    0 -0.51176621991E+00 -0.40249849603E+01  0.27001809859E+01  0.51875924041E+01  0.17770000000E+01 0.  1.
</event>
<event>
 6    1  0.3691007E-002  0.4262914E+02  0.7546771E-02  0.1333318E+00
        -11   -1    0    0    0    0  0.00000000000E+00  0.00000000000E+00  0.45600000000E+02  0.45600000000E+02  0.00000000000E+00 0.  1.
         11   -1    0    0    0    0 -0.00000000000E+00 -0.00000000000E+00 -0.45600000000E+02  0.45600000000E+02  0.00000000000E+00 0. -1.
        -11    1    1    2    0    0  0.15429793189E+01  0.63990010963E+00  0.43295762085E+02  0.43327973318E+02  0.00000000000E+00 0.  1.
         11    1    1    2    0    0  0.91260415239E+00 -0.14562572611E+00 -0.41967273974E+02  0.41977447969E+02  0.00000000000E+00 0. -1.
        -15    1    1    2    0    0 -0.30184407023E+01  0.65577953309E-01  0.59983277339E-01  0.35037996140E+01  0.17770000000E+01 0.  1.
         15    1    1    2    0    0  0.56285723105E+00 -0.55985233684E+00 -0.13884713884E+01  0.23907790986E+01  0.17770000000E+01 0. -1.
</event>
<event>
 6    1  0.3691007E-002  0.4654783E+02  0.7546771E-02  0.1313527E+00
        -11   -1    0    0    0    0  0.00000000000E+00  0.00000000000E+00  0.45600000000E+02  0.45600000000E+02  0.00000000000E+00 0. -1.
         11   -1    0    0    0    0 -0.00000000000E+00 -0.00000000000E+00 -0.45600000000E+02  0.45600000000E+02  0.00000000000E+00 0. -1.
        -11    1    1    2    0    0  0.21851013732E+01  0.58415254285E-01  0.44598638994E+02  0.44652174420E+02  0.00000000000E+00 0. -1.
         11    1    1    2    0    0  0.11104240973E+01  0.12667645464E+01 -0.35519682162E+02  0.35559605664E+02  0.00000000000E+00 0. -1.
        -15    1    1    2    0    0 -0.28588194943E+01  0.61075839892E-01 -0.30721451174E+01  0.45576730666E+01  0.17770000000E+01 0. -1.
         15    1    1    2    0    0 -0.43670597618E+00 -0.13862556405E+01 -0.60068117145E+01  0.64305468496E+01  0.17770000000E+01 0. -1.
</event>
<event>
 6    1  0.3691007E-002  0.4763210E+02  0.7546771E-02  0.1308444E+00
        -11   -1    0    0    0    0  0.00000000000E+00  0.00000000000E+00  0.45600000000E+02  0.45600000000E+02  0.00000000000E+00 0. -1.
         11   -1    0    0    0    0 -0.00000000000E+00 -0.00000000000E+00 -0.45600000000E+02  0.45600000000E+02  0.00000000000E+00 0. -1.
        -11    1    1    2    0    0  0.37823197117E+00  0.32355071298E+01  0.40696451288E+02  0.40826617706E+02  0.00000000000E+00 0. -1.
         11    1    1    2    0    0 -0.65017527972E+00  0.17264789080E+00 -0.43562709361E+02  0.43567903118E+02  0.00000000000E+00 0. -1.
        -15    1    1    2    0    0  0.16549151890E+01 -0.29351689629E+01  0.13128241924E+01  0.40292924296E+01  0.17770000000E+01 0. -1.
         15    1    1    2    0    0 -0.13829718805E+01 -0.47298605775E+00  0.15534338806E+01  0.27761867470E+01  0.17770000000E+01 0.  1.
</event>
<event>
 6    1  0.3691007E-002  0.4946875E+02  0.7546771E-02  0.1300179E+00
        -11   -1    0    0    0    0  0.00000000000E+00  0.00000000000E+00  0.45600000000E+02  0.45600000000E+02  0.00000000000E+00 0. -1.
         11   -1    0    0    0    0 -0.00000000000E+00 -0.00000000000E+00 -0.45600000000E+02  0.45600000000E+02  0.00000000000E+00 0. -1.
        -11    1    1    2    0    0  0.45482817827E+01  0.76489461530E+00  0.36254022480E+02  0.36546218367E+02  0.00000000000E+00 0. -1.
         11    1    1    2    0    0  0.32464263395E-01 -0.14093844362E+01 -0.41707429924E+02  0.41731248835E+02  0.00000000000E+00 0. -1.
        -15    1    1    2    0    0 -0.23637305302E+01 -0.22077702031E+01 -0.21845249880E+01  0.42885136949E+01  0.17770000000E+01 0. -1.
         15    1    1    2    0    0 -0.22170155159E+01  0.28522600239E+01  0.76379324320E+01  0.86340191034E+01  0.17770000000E+01 0.  1.
</event>
<event>
 6    1  0.3691007E-002  0.4076591E+02  0.7546771E-02  0.1343612E+00
        -11   -1    0    0    0    0  0.00000000000E+00  0.00000000000E+00  0.45600000000E+02  0.45600000000E+02  0.00000000000E+00 0. -1.
         11   -1    0    0    0    0 -0.00000000000E+00 -0.00000000000E+00 -0.45600000000E+02  0.45600000000E+02  0.00000000000E+00 0.  1.
        -11    1    1    2    0    0  0.18046317949E+01  0.79891648875E+00  0.40514791602E+02  0.40562831534E+02  0.00000000000E+00 0. -1.
         11    1    1    2    0    0  0.71149889032E+00 -0.27614145371E+01 -0.40933265898E+02  0.41032473701E+02  0.00000000000E+00 0.  1.
        -15    1    1    2    0    0 -0.27895154743E+00 -0.24517635931E+01  0.25128576961E+01  0.39447612708E+01  0.17770000000E+01 0. -1.
         15    1    1    2    0    0 -0.22371791378E+01  0.44142616414E+01 -0.20943834000E+01  0.56599334943E+01  0.17770000000E+01 0.  1.
</event>
<event>
 6    1  0.3691007E-002  0.4649648E+02  0.7546771E-02  0.1313771E+00
        -11   -1    0    0    0    0  0.00000000000E+00  0.00000000000E+00  0.45600000000E+02  0.45600000000E+02  0.00000000000E+00 0. -1.
         11   -1    0    0    0    0 -0.00000000000E+00 -0.00000000000E+00 -0.45600000000E+02  0.45600000000E+02  0.00000000000E+00 0. -1.
        -11    1    1    2    0    0 -0.93040836013E+00 -0.45168011514E+00  0.44691552703E+02  0.44703518403E+02  0.00000000000E+00 0. -1.
         11    1    1    2    0    0  0.25209201507E+00  0.17408280348E+01 -0.25487359603E+02  0.25547984895E+02  0.00000000000E+00 0. -1.
        -15    1    1    2    0    0 -0.57192249858E+00 -0.13263734760E+01 -0.81401274938E+00  0.24303719260E+01  0.17770000000E+01 0.  1.
         15    1    1    2    0    0  0.12502388436E+01  0.37225556397E-01 -0.18390180350E+02  0.18518124776E+02  0.17770000000E+01 0.  1.
</event>
<event>
 6    1  0.3691007E-002  0.5375942E+02  0.7546771E-02  0.1282380E+00
        -11   -1    0    0    0    0  0.00000000000E+00  0.00000000000E+00  0.45600000000E+02  0.45600000000E+02  0.00000000000E+00 0.  1.
         11   -1    0    0    0    0 -0.00000000000E+00 -0.00000000000E+00 -0.45600000000E+02  0.45600000000E+02  0.00000000000E+00 0. -1.
        -11    1    1    2    0    0  0.70214238601E+00  0.20594507830E+00  0.37433427747E+02  0.37440578657E+02  0.00000000000E+00 0.  1.
         11    1    1    2    0    0 -0.71695357596E+00  0.80655067816E+00 -0.34295376043E+02  0.34312350027E+02  0.00000000000E+00 0. -1.
        -15    1    1    2    0    0  0.77432330405E+00  0.44305307023E+01 -0.96187506373E+01  0.10766023951E+02  0.17770000000E+01 0. -1.
         15    1    1    2    0    0 -0.75951211410E+00 -0.54430264587E+01  0.64806989337E+01  0.86810473649E+01  0.17770000000E+01 0.  1.
</event>
<event>
 6    1  0.3691007E-002  0.4687373E+02  0.7546771E-02  0.1311982E+00
        -11   -1    0    0    0    0  0.00000000000E+00  0.00000000000E+00  0.45600000000E+02  0.45600000000E+02  0.00000000000E+00 0. -1.
         11   -1    0    0    0    0 -0.00000000000E+00 -0.00000000000E+00 -0.45600000000E+02  0.45600000000E+02  0.00000000000E+00 0.  1.
        -11    1    1    2    0    0  0.29458608980E+00  0.59831938871E+00  0.35632021894E+02  0.35638262462E+02  0.00000000000E+00 0. -1.
         11    1    1    2    0    0 -0.79160483855E+00 -0.14117263897E+01 -0.44296709506E+02  0.44326268540E+02  0.00000000000E+00 0.  1.
        -15    1    1    2    0    0 -0.18786993090E+01 -0.15644290939E+01  0.22098131546E+01  0.37440556435E+01  0.17770000000E+01 0. -1.
         15    1    1    2    0    0  0.23757180577E+01  0.23778360949E+01  0.64548744576E+01  0.74914133544E+01  0.17770000000E+01 0.  1.
</event>
<event>
 6    1  0.3691007E-002  0.4892290E+02  0.7546771E-02  0.1302592E+00
        -11   -1    0    0    0    0  0.00000000000E+00  0.00000000000E+00  0.45600000000E+02  0.45600000000E+02  0.00000000000E+00 0. -1.
         11   -1    0    0    0    0 -0.00000000000E+00 -0.00000000000E+00 -0.45600000000E+02  0.45600000000E+02  0.00000000000E+00 0. -1.
        -11    1    1    2    0    0 -0.42140830071E+00  0.10725084010E+01  0.42261393705E+02  0.42277100860E+02  0.00000000000E+00 0. -1.
         11    1    1    2    0    0  0.14892074530E+01 -0.41692699055E+00 -0.40423365191E+02  0.40452935867E+02  0.00000000000E+00 0. -1.
        -15    1    1    2    0    0  0.11772407051E+01 -0.10884715159E+01  0.23657899097E+01  0.33653167482E+01  0.17770000000E+01 0.  1.
         15    1    1    2    0    0 -0.22450398574E+01  0.43289010545E+00 -0.42038184238E+01  0.51046465250E+01  0.17770000000E+01 0. -1.
</event>
<event>
 6    1  0.3691007E-002  0.4762348E+02  0.7546771E-02  0.1308483E+00
        -11   -1    0    0    0    0  0.00000000000E+00  0.00000000000E+00  0.45600000000E+02  0.45600000000E+02  0.00000000000E+00 0. -1.
         11   -1    0    0    0    0 -0.00000000000E+00 -0.00000000000E+00 -0.45600000000E+02  0.45600000000E+02  0.00000000000E+00 0. -1.
        -11    1    1    2    0    0 -0.32044937810E+00  0.40915736901E+01  0.43382820564E+02  0.43576516418E+02  0.00000000000E+00 0. -1.
         11    1    1    2    0    0 -0.19900954377E+01  0.13064691502E+01 -0.34714531602E+02  0.34796063654E+02  0.00000000000E+00 0. -1.
        -15    1    1    2    0    0 -0.34691804168E+00 -0.53409653975E+00  0.51344487145E+00  0.19562632434E+01  0.17770000000E+01 0.  1.
         15    1    1    2    0    0  0.26574628575E+01 -0.48639463006E+01 -0.91817338336E+01  0.10871156684E+02  0.17770000000E+01 0. -1.
</event>
<event>
 6    1  0.3691007E-002  0.4933721E+02  0.7546771E-02  0.1300757E+00
        -11   -1    0    0    0    0  0.00000000000E+00  0.00000000000E+00  0.45600000000E+02  0.45600000000E+02  0.00000000000E+00 0. -1.
         11   -1    0    0    0    0 -0.00000000000E+00 -0.00000000000E+00 -0.45600000000E+02  0.45600000000E+02  0.00000000000E+00 0. -1.
        -11    1    1    2    0    0 -0.23792113742E+01  0.55815190643E+01  0.41420754690E+02  0.41862786827E+02  0.00000000000E+00 0. -1.
         11    1    1    2    0    0 -0.27897387573E-01  0.11124717623E+01 -0.37015631089E+02  0.37032354997E+02  0.00000000000E+00 0. -1.
        -15    1    1    2    0    0 -0.10031134790E+01 -0.49162751038E-01 -0.41482626546E+01  0.46232527164E+01  0.17770000000E+01 0.  1.
         15    1    1    2    0    0  0.34102222408E+01 -0.66448280756E+01 -0.25686094632E+00  0.76816054592E+01  0.17770000000E+01 0. -1.
</event>
<event>
 6    1  0.3691007E-002  0.4276771E+02  0.7546771E-02  0.1332577E+00
        -11   -1    0    0    0    0  0.00000000000E+00  0.00000000000E+00  0.45600000000E+02  0.45600000000E+02  0.00000000000E+00 0. -1.
         11   -1    0    0    0    0 -0.00000000000E+00 -0.00000000000E+00 -0.45600000000E+02  0.45600000000E+02  0.00000000000E+00 0. -1.
        -11    1    1    2    0    0 -0.95284080451E+00 -0.86890006688E+00  0.43124221800E+02  0.43143497758E+02  0.00000000000E+00 0. -1.
         11    1    1    2    0    0  0.14174415480E+01 -0.46389522341E+00 -0.42380568169E+02  0.42406802493E+02  0.00000000000E+00 0. -1.
        -15    1    1    2    0    0 -0.14060119442E+01  0.42177468818E+00 -0.20498435087E+01  0.30845341439E+01  0.17770000000E+01 0. -1.
         15    1    1    2    0    0  0.94141120064E+00  0.91102060211E+00  0.13061898779E+01  0.25651656054E+01  0.17770000000E+01 0. -1.
</event>
<event>
 6    1  0.3691007E-002  0.4666314E+02  0.7546771E-02  0.1312979E+00
        -11   -1    0    0    0    0  0.00000000000E+00  0.00000000000E+00  0.45600000000E+02  0.45600000000E+02  0.00000000000E+00 0.  1.
         11   -1    0    0    0    0 -0.00000000000E+00 -0.00000000000E+00 -0.45600000000E+02  0.45600000000E+02  0.00000000000E+00 0. -1.
        -11    1    1    2    0    0  0.57496581811E+00  0.10625034648E+01  0.14160108781E+02  0.14211550936E+02  0.00000000000E+00 0.  1.
         11    1    1    2    0    0 -0.18423028338E+01  0.28105204568E+01 -0.44409898978E+02  0.44536863744E+02  0.00000000000E+00 0. -1.
        -15    1    1    2    0    0 -0.24331362494E+01  0.26017282012E+01  0.12452563711E+02  0.13073378049E+02  0.17770000000E+01 0.  1.
         15    1    1    2    0    0  0.37004732651E+01 -0.64747521228E+01  0.17797226486E+02  0.19378207271E+02  0.17770000000E+01 0. -1.
</event>
<event>
 6    1  0.3691007E-002  0.4749617E+02  0.7546771E-02  0.1309072E+00
        -11   -1    0    0    0    0  0.00000000000E+00  0.00000000000E+00  0.45600000000E+02  0.45600000000E+02  0.00000000000E+00 0.  1.
         11   -1    0    0    0    0 -0.00000000000E+00 -0.00000000000E+00 -0.45600000000E+02  0.45600000000E+02  0.00000000000E+00 0.  1.
        -11    1    1    2    0    0  0.49186121308E+00 -0.51871490641E+00  0.36023532586E+02  0.36030624371E+02  0.00000000000E+00 0.  1.
         11    1    1    2    0    0 -0.38908961669E+00 -0.15068946751E+01 -0.43676114167E+02  0.43703833597E+02  0.00000000000E+00 0.  1.
        -15    1    1    2    0    0 -0.12374827294E+01 -0.15592245465E+01 -0.97410943507E-01  0.26701615277E+01  0.17770000000E+01 0. -1.
         15    1    1    2    0    0  0.11347111330E+01  0.35848341280E+01  0.77499925252E+01  0.87953805046E+01  0.17770000000E+01 0.  1.
</event>
<event>
 6    1  0.3691007E-002  0.4800063E+02  0.7546771E-02  0.1306751E+00
        -11   -1    0    0    0    0  0.00000000000E+00  0.00000000000E+00  0.45600000000E+02  0.45600000000E+02  0.00000000000E+00 0. -1.
         11   -1    0    0    0    0 -0.00000000000E+00 -0.00000000000E+00 -0.45600000000E+02  0.45600000000E+02  0.00000000000E+00 0. -1.
        -11    1    1    2    0    0  0.91334836874E+00  0.48765008403E+00  0.39253359509E+02  0.39267012116E+02  0.00000000000E+00 0. -1.
         11    1    1    2    0    0  0.98311653938E+00 -0.22587569518E+01 -0.43129077396E+02  0.43199372891E+02  0.00000000000E+00 0. -1.
        -15    1    1    2    0    0  0.65221022821E+00  0.20470337319E+01 -0.98598908083E+00  0.29573009230E+01  0.17770000000E+01 0. -1.
         15    1    1    2    0    0 -0.25486751363E+01 -0.27592686422E+00  0.48617069686E+01  0.57763140699E+01  0.17770000000E+01 0. -1.
</event>
<event>
 6    1  0.3691007E-002  0.5179749E+02  0.7546771E-02  0.1290273E+00
        -11   -1    0    0    0    0  0.00000000000E+00  0.00000000000E+00  0.45600000000E+02  0.45600000000E+02  0.00000000000E+00 0. -1.
         11   -1    0    0    0    0 -0.00000000000E+00 -0.00000000000E+00 -0.45600000000E+02  0.45600000000E+02  0.00000000000E+00 0. -1.
        -11    1    1    2    0    0  0.19206183602E+00  0.78801522761E+00  0.35682773249E+02  0.35691990173E+02  0.00000000000E+00 0. -1.
         11    1    1    2    0    0  0.14046560603E+00 -0.86074609953E+00 -0.39392855278E+02  0.39402508313E+02  0.00000000000E+00 0. -1.
        -15    1    1    2    0    0 -0.40933695940E+01 -0.62892295314E+01  0.35832408394E+01  0.85033773669E+01  0.17770000000E+01 0.  1.
         15    1    1    2    0    0  0.37608421520E+01  0.63619604033E+01  0.12684118950E+00  0.76021241474E+01  0.17770000000E+01 0. -1.
</event>
<event>
 6    1  0.3691007E-002  0.4653216E+02  0.7546771E-02  0.1313601E+00
        -11   -1    0    0    0    0  0.00000000000E+00  0.00000000000E+00  0.45600000000E+02  0.45600000000E+02  0.00000000000E+00 0. -1.
         11   -1    0    0    0    0 -0.00000000000E+00 -0.00000000000E+00 -0.45600000000E+02  0.45600000000E+02  0.00000000000E+00 0. -1.
        -11    1    1    2    0    0  0.84504255150E+00  0.66235704391E+00  0.44654935150E+02  0.44667841307E+02  0.00000000000E+00 0. -1.
         11    1    1    2    0    0 -0.95831695975E+00  0.79896079279E+00 -0.23437425015E+02  0.23470611434E+02  0.00000000000E+00 0. -1.
        -15    1    1    2    0    0 -0.26044234899E+01 -0.29406229682E+01 -0.57444311769E+01  0.71823745170E+01  0.17770000000E+01 0. -1.
         15    1    1    2    0    0  0.27176978982E+01  0.14793051315E+01 -0.15473078958E+02  0.15879172743E+02  0.17770000000E+01 0. -1.
</event>
<event>
 6    1  0.3691007E-002  0.4718040E+02  0.7546771E-02  0.1310542E+00
        -11   -1    0    0    0    0  0.00000000000E+00  0.00000000000E+00  0.45600000000E+02  0.45600000000E+02  0.00000000000E+00 0. -1.
         11   -1    0    0    0    0 -0.00000000000E+00 -0.00000000000E+00 -0.45600000000E+02  0.45600000000E+02  0.00000000000E+00 0. -1.
        -11    1    1    2    0    0 -0.65526447598E+01 -0.17444605662E+01  0.43494191883E+02  0.44019598176E+02  0.00000000000E+00 0. -1.
         11    1    1    2    0    0  0.36866754991E+00  0.64487936110E+00 -0.21165822744E+02  0.21178853547E+02  0.00000000000E+00 0. -1.
        -15    1    1    2    0    0 -0.38963910694E+00  0.14381349142E+01  0.32750601947E+00  0.23420161951E+01  0.17770000000E+01 0.  1.
         15    1    1    2    0    0  0.65736163168E+01 -0.33855370919E+00 -0.22655875159E+02  0.23659532081E+02  0.17770000000E+01 0. -1.
</event>
<event>
 6    1  0.3691007E-002  0.4769934E+02  0.7546771E-02  0.1308134E+00
        -11   -1    0    0    0    0  0.00000000000E+00  0.00000000000E+00  0.45600000000E+02  0.45600000000E+02  0.00000000000E+00 0. -1.
         11   -1    0    0    0    0 -0.00000000000E+00 -0.00000000000E+00 -0.45600000000E+02  0.45600000000E+02  0.00000000000E+00 0.  1.
        -11    1    1    2    0    0 -0.45378015153E+00  0.44757469115E+00  0.28338798051E+02  0.28345964696E+02  0.00000000000E+00 0. -1.
         11    1    1    2    0    0  0.13296744909E+01 -0.42077249613E+01 -0.43276260511E+02  0.43500663298E+02  0.00000000000E+00 0.  1.
        -15    1    1    2    0    0  0.36305143795E+01  0.36085442178E+01  0.24274481783E+01  0.59373781832E+01  0.17770000000E+01 0.  1.
         15    1    1    2    0    0 -0.45064087189E+01  0.15160605239E+00  0.12510014281E+02  0.13415993823E+02  0.17770000000E+01 0. -1.
</event>
<event>
 6    1  0.3691007E-002  0.4912665E+02  0.7546771E-02  0.1301687E+00
        -11   -1    0    0    0    0  0.00000000000E+00  0.00000000000E+00  0.45600000000E+02  0.45600000000E+02  0.00000000000E+00 0.  1.
         11   -1    0    0    0    0 -0.00000000000E+00 -0.00000000000E+00 -0.45600000000E+02  0.45600000000E+02  0.00000000000E+00 0. -1.
        -11    1    1    2    0    0 -0.36396671608E+01 -0.12055772966E+01  0.41898279235E+02  0.42073345440E+02  0.00000000000E+00 0.  1.
         11    1    1    2    0    0  0.13575446218E+01  0.31193120601E+00 -0.11301923289E+02  0.11387435993E+02  0.00000000000E+00 0. -1.
        -15    1    1    2    0    0  0.22701905249E+01  0.67711648379E+01 -0.89940631462E+00  0.74141148494E+01  0.17770000000E+01 0.  1.
         15    1    1    2    0    0  0.11932014175E-01 -0.58775187473E+01 -0.29696949632E+02  0.30325103717E+02  0.17770000000E+01 0. -1.
</event>
<event>
 6    1  0.3691007E-002  0.4778227E+02  0.7546771E-02  0.1307752E+00
        -11   -1    0    0    0    0  0.00000000000E+00  0.00000000000E+00  0.45600000000E+02  0.45600000000E+02  0.00000000000E+00 0. -1.
         11   -1    0    0    0    0 -0.00000000000E+00 -0.00000000000E+00 -0.45600000000E+02  0.45600000000E+02  0.00000000000E+00 0.  1.
        -11    1    1    2    0    0  0.18924640561E+01 -0.54206476322E+00  0.43373081473E+02  0.43417731987E+02  0.00000000000E+00 0. -1.
         11    1    1    2    0    0  0.15720071542E+01 -0.27649136157E+01 -0.10091998324E+02  0.10581322411E+02  0.00000000000E+00 0.  1.
        -15    1    1    2    0    0 -0.46268905591E+01 -0.27644884468E+01 -0.28819453298E+02  0.29372931928E+02  0.17770000000E+01 0.  1.
         15    1    1    2    0    0  0.11624193489E+01  0.60714668257E+01 -0.44616298514E+01  0.78280136746E+01  0.17770000000E+01 0. -1.
</event>
<event>
 6    1  0.3691007E-002  0.4614116E+02  0.7546771E-02  0.1315474E+00
        -11   -1    0    0    0    0  0.00000000000E+00  0.00000000000E+00  0.45600000000E+02  0.45600000000E+02  0.00000000000E+00 0. -1.
         11   -1    0    0    0    0 -0.00000000000E+00 -0.00000000000E+00 -0.45600000000E+02  0.45600000000E+02  0.00000000000E+00 0. -1.
        -11    1    1    2    0    0  0.34333035981E+00 -0.56715674145E+00  0.36909671020E+02  0.36915624840E+02  0.00000000000E+00 0. -1.
         11    1    1    2    0    0 -0.62000262259E+00 -0.61397314389E-01 -0.45054532297E+02  0.45058839903E+02  0.00000000000E+00 0. -1.
        -15    1    1    2    0    0  0.10099913876E+01 -0.11627419245E+00  0.25964721623E+01  0.33065085786E+01  0.17770000000E+01 0.  1.
         15    1    1    2    0    0 -0.73331912478E+00  0.74482824830E+00  0.55483891147E+01  0.59190266790E+01  0.17770000000E+01 0.  1.
</event>
<event>
 6    1  0.3691007E-002  0.4596702E+02  0.7546771E-02  0.1316315E+00
        -11   -1    0    0    0    0  0.00000000000E+00  0.00000000000E+00  0.45600000000E+02  0.45600000000E+02  0.00000000000E+00 0. -1.
         11   -1    0    0    0    0 -0.00000000000E+00 -0.00000000000E+00 -0.45600000000E+02  0.45600000000E+02  0.00000000000E+00 0. -1.
        -11    1    1    2    0    0 -0.46716453201E+00 -0.83402713765E+00  0.45222879879E+02  0.45232982530E+02  0.00000000000E+00 0. -1.
         11    1    1    2    0    0 -0.77962497842E+00 -0.53983429429E+00 -0.22572751931E+02  0.22592661771E+02  0.00000000000E+00 0. -1.
        -15    1    1    2    0    0 -0.11311269130E+01 -0.40442755125E+00 -0.11545346368E+02  0.11742902600E+02  0.17770000000E+01 0. -1.
         15    1    1    2    0    0  0.23779164234E+01  0.17782889832E+01 -0.11104781581E+02  0.11631453099E+02  0.17770000000E+01 0. -1.
</event>
<event>
 6    1  0.3691007E-002  0.4797349E+02  0.7546771E-02  0.1306875E+00
        -11   -1    0    0    0    0  0.00000000000E+00  0.00000000000E+00  0.45600000000E+02  0.45600000000E+02  0.00000000000E+00 0. -1.
         11   -1    0    0    0    0 -0.00000000000E+00 -0.00000000000E+00 -0.45600000000E+02  0.45600000000E+02  0.00000000000E+00 0. -1.
        -11    1    1    2    0    0 -0.10708073539E+01 -0.11344881935E+01  0.43198351149E+02  0.43226510775E+02  0.00000000000E+00 0. -1.
         11    1    1    2    0    0 -0.10676332990E+00  0.10648292539E+01 -0.41405931236E+02  0.41419758586E+02  0.00000000000E+00 0. -1.
        -15    1    1    2    0    0  0.98400494694E+00  0.22053942083E+01 -0.22271248865E+01  0.37349489434E+01  0.17770000000E+01 0. -1.
         15    1    1    2    0    0  0.19356573688E+00 -0.21357352687E+01  0.43470497426E+00  0.28187816956E+01  0.17770000000E+01 0.  1.
</event>
<event>
 6    1  0.3691007E-002  0.4610661E+02  0.7546771E-02  0.1315641E+00
        -11   -1    0    0    0    0  0.00000000000E+00  0.00000000000E+00  0.45600000000E+02  0.45600000000E+02  0.00000000000E+00 0. -1.
         11   -1    0    0    0    0 -0.00000000000E+00 -0.00000000000E+00 -0.45600000000E+02  0.45600000000E+02  0.00000000000E+00 0.  1.
        -11    1    1    2    0    0  0.12294196147E-01 -0.66003787749E+00  0.21359248636E+02  0.21369447897E+02  0.00000000000E+00 0. -1.
         11    1    1    2    0    0 -0.82056696879E+00  0.62423680105E+00 -0.45081603745E+02  0.45093391954E+02  0.00000000000E+00 0.  1.
        -15    1    1    2    0    0  0.11483702974E+01 -0.61344919651E+00  0.21461863978E+01  0.30755356137E+01  0.17770000000E+01 0. -1.
         15    1    1    2    0    0 -0.34009752481E+00  0.64925027294E+00  0.21576168711E+02  0.21661624535E+02  0.17770000000E+01 0. -1.
</event>
<event>
 6    1  0.3691007E-002  0.4783376E+02  0.7546771E-02  0.1307515E+00
        -11   -1    0    0    0    0  0.00000000000E+00  0.00000000000E+00  0.45600000000E+02  0.45600000000E+02  0.00000000000E+00 0. -1.
         11   -1    0    0    0    0 -0.00000000000E+00 -0.00000000000E+00 -0.45600000000E+02  0.45600000000E+02  0.00000000000E+00 0.  1.
        -11    1    1    2    0    0  0.11994955455E+01  0.38368095142E+01  0.43179516701E+02  0.43366237551E+02  0.00000000000E+00 0. -1.
         11    1    1    2    0    0 -0.83317719894E+00  0.58835851186E+00 -0.18820798823E+02  0.18848416865E+02  0.00000000000E+00 0.  1.
        -15    1    1    2    0    0  0.17439781310E+01 -0.12197679060E+01 -0.24593881359E+02  0.24749667124E+02  0.17770000000E+01 0.  1.
         15    1    1    2    0    0 -0.21102964776E+01 -0.32054001201E+01  0.23516348111E+00  0.42356784599E+01  0.17770000000E+01 0.  1.
</event>
<event>
 6    1  0.3691007E-002  0.4648602E+02  0.7546771E-02  0.1313821E+00
        -11   -1    0    0    0    0  0.00000000000E+00  0.00000000000E+00  0.45600000000E+02  0.45600000000E+02  0.00000000000E+00 0. -1.
         11   -1    0    0    0    0 -0.00000000000E+00 -0.00000000000E+00 -0.45600000000E+02  0.45600000000E+02  0.00000000000E+00 0.  1.
        -11    1    1    2    0    0 -0.38736564820E+01  0.43847388274E+00  0.44543711166E+02  0.44713976319E+02  0.00000000000E+00 0. -1.
         11    1    1    2    0    0  0.69785908944E+00 -0.39198915006E+00 -0.31563947083E+02  0.31574094101E+02  0.00000000000E+00 0.  1.
        -15    1    1    2    0    0  0.44201333564E+01 -0.10296599748E+01 -0.76011206826E+01  0.90295372630E+01  0.17770000000E+01 0. -1.
         15    1    1    2    0    0 -0.12443359639E+01  0.98317524214E+00 -0.53786433999E+01  0.58823923170E+01  0.17770000000E+01 0. -1.
</event>
<event>
 6    1  0.3691007E-002  0.4605405E+02  0.7546771E-02  0.1315895E+00
        -11   -1    0    0    0    0  0.00000000000E+00  0.00000000000E+00  0.45600000000E+02  0.45600000000E+02  0.00000000000E+00 0. -1.
         11   -1    0    0    0    0 -0.00000000000E+00 -0.00000000000E+00 -0.45600000000E+02  0.45600000000E+02  0.00000000000E+00 0. -1.
        -11    1    1    2    0    0 -0.30884608753E+00 -0.92442939244E+00  0.45135428643E+02  0.45145950808E+02  0.00000000000E+00 0. -1.
         11    1    1    2    0    0 -0.93714178217E+00 -0.40321640642E+00 -0.31243513124E+02  0.31260165235E+02  0.00000000000E+00 0. -1.
        -15    1    1    2    0    0  0.19837469794E+01 -0.18608856759E-01 -0.61066458456E+01  0.66621656277E+01  0.17770000000E+01 0. -1.
         15    1    1    2    0    0 -0.73775910975E+00  0.13462546556E+01 -0.77852696731E+01  0.81317183291E+01  0.17770000000E+01 0.  1.
</event>
<event>
 6    1  0.3691007E-002  0.4700865E+02  0.7546771E-02  0.1311347E+00
        -11   -1    0    0    0    0  0.00000000000E+00  0.00000000000E+00  0.45600000000E+02  0.45600000000E+02  0.00000000000E+00 0.  1.
         11   -1    0    0    0    0 -0.00000000000E+00 -0.00000000000E+00 -0.45600000000E+02  0.45600000000E+02  0.00000000000E+00 0. -1.
        -11    1    1    2    0    0  0.20389159291E+01 -0.17901121232E+01  0.44107979263E+02  0.44191351125E+02  0.00000000000E+00 0.  1.
         11    1    1    2    0    0 -0.87500102527E+00  0.23832855476E+01 -0.23012176238E+02  0.23151801917E+02  0.00000000000E+00 0. -1.
        -15    1    1    2    0    0 -0.17777817622E+01 -0.22208795295E+01 -0.21105193695E+02  0.21370066536E+02  0.17770000000E+01 0. -1.
         15    1    1    2    0    0  0.61386685835E+00  0.16277061051E+01  0.93906693276E-02  0.24867804224E+01  0.17770000000E+01 0.  1.
</event>
<event>
 6    1  0.3691007E-002  0.5338225E+02  0.7546771E-02  0.1283867E+00
        -11   -1    0    0    0    0  0.00000000000E+00  0.00000000000E+00  0.45600000000E+02  0.45600000000E+02  0.00000000000E+00 0.  1.
         11   -1    0    0    0    0 -0.00000000000E+00 -0.00000000000E+00 -0.45600000000E+02  0.45600000000E+02  0.00000000000E+00 0.  1.
        -11    1    1    2    0    0  0.83113458312E+01 -0.56203283868E+01  0.36462526893E+02  0.37817752817E+02  0.00000000000E+00 0.  1.
         11    1    1    2    0    0  0.20016496482E+01  0.10838619372E+01 -0.27596980816E+02  0.27690697142E+02  0.00000000000E+00 0.  1.
        -15    1    1    2    0    0 -0.37705087653E+01 -0.95530293084E+00 -0.14624905256E+02  0.15237287251E+02  0.17770000000E+01 0.  1.
         15    1    1    2    0    0 -0.65424867141E+01  0.54917693804E+01  0.57593591788E+01  0.10454262790E+02  0.17770000000E+01 0.  1.
</event>
<event>
 6    1  0.3691007E-002  0.4652178E+02  0.7546771E-02  0.1313651E+00
        -11   -1    0    0    0    0  0.00000000000E+00  0.00000000000E+00  0.45600000000E+02  0.45600000000E+02  0.00000000000E+00 0. -1.
         11   -1    0    0    0    0 -0.00000000000E+00 -0.00000000000E+00 -0.45600000000E+02  0.45600000000E+02  0.00000000000E+00 0.  1.
        -11    1    1    2    0    0  0.56317469834E+00  0.37652855729E+00  0.44673085652E+02  0.44678222001E+02  0.00000000000E+00 0. -1.
         11    1    1    2    0    0  0.72645344276E-01  0.56805057525E+00 -0.35779742353E+02  0.35784325083E+02  0.00000000000E+00 0.  1.
        -15    1    1    2    0    0 -0.18838523339E+01  0.12480805079E+01 -0.50225981889E+01  0.57871258961E+01  0.17770000000E+01 0. -1.
         15    1    1    2    0    0  0.12480322913E+01 -0.21926596405E+01 -0.38707451097E+01  0.49503270199E+01  0.17770000000E+01 0.  1.
</event>
<event>
 6    1  0.3691007E-002  0.4891439E+02  0.7546771E-02  0.1302629E+00
        -11   -1    0    0    0    0  0.00000000000E+00  0.00000000000E+00  0.45600000000E+02  0.45600000000E+02  0.00000000000E+00 0. -1.
         11   -1    0    0    0    0 -0.00000000000E+00 -0.00000000000E+00 -0.45600000000E+02  0.45600000000E+02  0.00000000000E+00 0.  1.
        -11    1    1    2    0    0 -0.35635917539E+00  0.18993493065E+01  0.30176149078E+02  0.30237964430E+02  0.00000000000E+00 0. -1.
         11    1    1    2    0    0 -0.26914841844E+00 -0.13679574957E+01 -0.42262621081E+02  0.42285610900E+02  0.00000000000E+00 0.  1.
        -15    1    1    2    0    0  0.54167049005E+00 -0.10845679689E+01  0.15035294361E+02  0.15188400183E+02  0.17770000000E+01 0. -1.
         15    1    1    2    0    0  0.83837103778E-01  0.55317615803E+00 -0.29488223583E+01  0.34880244871E+01  0.17770000000E+01 0. -1.
</event>
<event>
 6    1  0.3691007E-002  0.4739610E+02  0.7546771E-02  0.1309537E+00
        -11   -1    0    0    0    0  0.00000000000E+00  0.00000000000E+00  0.45600000000E+02  0.45600000000E+02  0.00000000000E+00 0.  1.
         11   -1    0    0    0    0 -0.00000000000E+00 -0.00000000000E+00 -0.45600000000E+02  0.45600000000E+02  0.00000000000E+00 0. -1.
        -11    1    1    2    0    0 -0.54194937161E+00 -0.94515010216E+00  0.25064918592E+02  0.25088586287E+02  0.00000000000E+00 0.  1.
         11    1    1    2    0    0 -0.58066597448E+01  0.25641852290E+01 -0.43341542593E+02  0.43803900028E+02  0.00000000000E+00 0. -1.
        -15    1    1    2    0    0  0.14844857713E+01 -0.37158752282E+01  0.15048486262E+01  0.46296571260E+01  0.17770000000E+01 0.  1.
         15    1    1    2    0    0  0.48641233452E+01  0.20968401014E+01  0.16771775375E+02  0.17677856560E+02  0.17770000000E+01 0. -1.
</event>
<event>
 6    1  0.3691007E-002  0.4752904E+02  0.7546771E-02  0.1308920E+00
        -11   -1    0    0    0    0  0.00000000000E+00  0.00000000000E+00  0.45600000000E+02  0.45600000000E+02  0.00000000000E+00 0. -1.
         11   -1    0    0    0    0 -0.00000000000E+00 -0.00000000000E+00 -0.45600000000E+02  0.45600000000E+02  0.00000000000E+00 0.  1.
        -11    1    1    2    0    0 -0.48226970863E+00 -0.13704877156E+01  0.39427015859E+02  0.39453775488E+02  0.00000000000E+00 0. -1.
         11    1    1    2    0    0 -0.28888678313E+01 -0.75827056765E+00 -0.43568711031E+02  0.43670964181E+02  0.00000000000E+00 0.  1.
        -15    1    1    2    0    0  0.24710087405E+01  0.33901444309E+01  0.24458700293E+01  0.51709740531E+01  0.17770000000E+01 0. -1.
         15    1    1    2    0    0  0.90012879942E+00 -0.12613861476E+01  0.16958251427E+01  0.29042862778E+01  0.17770000000E+01 0.  1.
</event>
<event>
 6    1  0.3691007E-002  0.4739543E+02  0.7546771E-02  0.1309540E+00
        -11   -1    0    0    0    0  0.00000000000E+00  0.00000000000E+00  0.45600000000E+02  0.45600000000E+02  0.00000000000E+00 0. -1.
         11   -1    0    0    0    0 -0.00000000000E+00 -0.00000000000E+00 -0.45600000000E+02  0.45600000000E+02  0.00000000000E+00 0. -1.
        -11    1    1    2    0    0 -0.52498216935E+00 -0.38383654112E+00  0.39759681489E+02  0.39764999798E+02  0.00000000000E+00 0. -1.
         11    1    1    2    0    0  0.28010951537E+01  0.51117896630E+00 -0.43711928398E+02  0.43804567368E+02  0.00000000000E+00 0. -1.
        -15    1    1    2    0    0 -0.20966134658E+00 -0.63822338782E+00  0.44268057399E+01  0.48172217130E+01  0.17770000000E+01 0. -1.
         15    1    1    2    0    0 -0.20664516377E+01  0.51088096263E+00 -0.47455883096E+00  0.28132111213E+01  0.17770000000E+01 0. -1.
</event>
<event>
 6    1  0.3691007E-002  0.3955353E+02  0.7546771E-02  0.1350659E+00
        -11   -1    0    0    0    0  0.00000000000E+00  0.00000000000E+00  0.45600000000E+02  0.45600000000E+02  0.00000000000E+00 0. -1.
         11   -1    0    0    0    0 -0.00000000000E+00 -0.00000000000E+00 -0.45600000000E+02  0.45600000000E+02  0.00000000000E+00 0.  1.
        -11    1    1    2    0    0 -0.21501011036E+01 -0.41061715936E+01  0.41355858758E+02  0.41614788640E+02  0.00000000000E+00 0. -1.
         11    1    1    2    0    0  0.12692099140E+00 -0.34268168146E+01 -0.37800131306E+02  0.37955356791E+02  0.00000000000E+00 0.  1.
        -15    1    1    2    0    0  0.29240402060E+01  0.40088389424E+01 -0.50645901682E+01  0.73094872162E+01  0.17770000000E+01 0. -1.
         15    1    1    2    0    0 -0.90086009374E+00  0.35241494657E+01  0.15088627158E+01  0.43203673524E+01  0.17770000000E+01 0.  1.
</event>
<event>
 6    1  0.3691007E-002  0.4673867E+02  0.7546771E-02  0.1312620E+00
        -11   -1    0    0    0    0  0.00000000000E+00  0.00000000000E+00  0.45600000000E+02  0.45600000000E+02  0.00000000000E+00 0.  1.
         11   -1    0    0    0    0 -0.00000000000E+00 -0.00000000000E+00 -0.45600000000E+02  0.45600000000E+02  0.00000000000E+00 0.  1.
        -11    1    1    2    0    0 -0.19800403339E+01 -0.30968317636E+01  0.44309133099E+02  0.44461333793E+02  0.00000000000E+00 0.  1.
         11    1    1    2    0    0  0.22450038253E+01  0.10606564904E+01 -0.12995896055E+02  0.13230961743E+02  0.00000000000E+00 0.  1.
        -15    1    1    2    0    0 -0.20779412216E+01  0.25366470058E+00 -0.30022726382E+02  0.30148034992E+02  0.17770000000E+01 0. -1.
         15    1    1    2    0    0  0.18129777303E+01  0.17825105727E+01 -0.12905106622E+01  0.33596694720E+01  0.17770000000E+01 0.  1.
</event>
<event>
 6    1  0.3691007E-002  0.4590266E+02  0.7546771E-02  0.1316627E+00
        -11   -1    0    0    0    0  0.00000000000E+00  0.00000000000E+00  0.45600000000E+02  0.45600000000E+02  0.00000000000E+00 0.  1.
         11   -1    0    0    0    0 -0.00000000000E+00 -0.00000000000E+00 -0.45600000000E+02  0.45600000000E+02  0.00000000000E+00 0. -1.
        -11    1    1    2    0    0  0.49346300022E+00 -0.77419563659E+00  0.45288035606E+02  0.45297340471E+02  0.00000000000E+00 0.  1.
         11    1    1    2    0    0 -0.88937167270E-01 -0.58564628283E+00 -0.29672589001E+02  0.29678501131E+02  0.00000000000E+00 0. -1.
        -15    1    1    2    0    0 -0.99226531917E+00 -0.41574799294E-01 -0.63550528854E+01  0.66731360771E+01  0.17770000000E+01 0.  1.
         15    1    1    2    0    0  0.58773948622E+00  0.14014167187E+01 -0.92603937205E+01  0.95510223213E+01  0.17770000000E+01 0. -1.
</event>
<event>
 6    1  0.3691007E-002  0.4859518E+02  0.7546771E-02  0.1304058E+00
        -11   -1    0    0    0    0  0.00000000000E+00  0.00000000000E+00  0.45600000000E+02  0.45600000000E+02  0.00000000000E+00 0. -1.
         11   -1    0    0    0    0 -0.00000000000E+00 -0.00000000000E+00 -0.45600000000E+02  0.45600000000E+02  0.00000000000E+00 0. -1.
        -11    1    1    2    0    0  0.53433338004E+00  0.30574665841E+00  0.23593591219E+02  0.23601621550E+02  0.00000000000E+00 0. -1.
         11    1    1    2    0    0  0.43168215327E+01  0.12364275558E+01 -0.42367522511E+02  0.42604819739E+02  0.00000000000E+00 0. -1.
        -15    1    1    2    0    0 -0.26577252097E+01 -0.13500671681E+01 -0.20149771783E+01  0.40129847592E+01  0.17770000000E+01 0.  1.
         15    1    1    2    0    0 -0.21934297031E+01 -0.19210704611E+00  0.20788908470E+02  0.20980573952E+02  0.17770000000E+01 0. -1.
</event>
<event>
 6    1  0.3691007E-002  0.4884190E+02  0.7546771E-02  0.1302953E+00
        -11   -1    0    0    0    0  0.00000000000E+00  0.00000000000E+00  0.45600000000E+02  0.45600000000E+02  0.00000000000E+00 0. -1.
         11   -1    0    0    0    0 -0.00000000000E+00 -0.00000000000E+00 -0.45600000000E+02  0.45600000000E+02  0.00000000000E+00 0. -1.
        -11    1    1    2    0    0  0.23875379450E+00 -0.65932878701E+00  0.42352297034E+02  0.42358101727E+02  0.00000000000E+00 0. -1.
         11    1    1    2    0    0 -0.49883923103E+01 -0.41648362006E+01 -0.29361596641E+02  0.30072134538E+02  0.00000000000E+00 0. -1.
        -15    1    1    2    0    0  0.18966680782E+01  0.22847933926E+01  0.14314995475E+01  0.37449366617E+01  0.17770000000E+01 0.  1.
         15    1    1    2    0    0  0.28529704376E+01  0.25393715950E+01 -0.14422199941E+02  0.15024827073E+02  0.17770000000E+01 0. -1.
</event>
<event>
 6    1  0.3691007E-002  0.4740211E+02  0.7546771E-02  0.1309509E+00
        -11   -1    0    0    0    0  0.00000000000E+00  0.00000000000E+00  0.45600000000E+02  0.45600000000E+02  0.00000000000E+00 0. -1.
         11   -1    0    0    0    0 -0.00000000000E+00 -0.00000000000E+00 -0.45600000000E+02  0.45600000000E+02  0.00000000000E+00 0. -1.
        -11    1    1    2    0    0  0.92344567502E+00  0.38463186263E+01  0.43618900132E+02  0.43797892273E+02  0.00000000000E+00 0. -1.
         11    1    1    2    0    0 -0.47699904768E+00  0.12904036805E+01 -0.37451327324E+02  0.37476587199E+02  0.00000000000E+00 0. -1.
        -15    1    1    2    0    0 -0.21890697604E+01 -0.11701341390E+01 -0.29398562666E+01  0.42381274388E+01  0.17770000000E+01 0.  1.
         15    1    1    2    0    0  0.17426231331E+01 -0.39665881678E+01 -0.32277165411E+01  0.56873930888E+01  0.17770000000E+01 0. -1.
</event>
<event>
 6    1  0.3691007E-002  0.4607782E+02  0.7546771E-02  0.1315780E+00
        -11   -1    0    0    0    0  0.00000000000E+00  0.00000000000E+00  0.45600000000E+02  0.45600000000E+02  0.00000000000E+00 0. -1.
         11   -1    0    0    0    0 -0.00000000000E+00 -0.00000000000E+00 -0.45600000000E+02  0.45600000000E+02  0.00000000000E+00 0. -1.
        -11    1    1    2    0    0 -0.12303296921E+01 -0.11821799690E-01  0.35459038284E+02  0.35480378337E+02  0.00000000000E+00 0. -1.
         11    1    1    2    0    0  0.61388356852E+00 -0.17493117566E+01 -0.45084078930E+02  0.45122179885E+02  0.00000000000E+00 0. -1.
        -15    1    1    2    0    0 -0.49123689576E+00  0.48964813878E+00  0.32577986283E+01  0.37751887225E+01  0.17770000000E+01 0. -1.
         15    1    1    2    0    0  0.11076830193E+01  0.12714854175E+01  0.63672420176E+01  0.68222530552E+01  0.17770000000E+01 0.  1.
</event>
<event>
 6    1  0.3691007E-002  0.4618120E+02  0.7546771E-02  0.1315282E+00
        -11   -1    0    0    0    0  0.00000000000E+00  0.00000000000E+00  0.45600000000E+02  0.45600000000E+02  0.00000000000E+00 0. -1.
         11   -1    0    0    0    0 -0.00000000000E+00 -0.00000000000E+00 -0.45600000000E+02  0.45600000000E+02  0.00000000000E+00 0. -1.
        -11    1    1    2    0    0  0.24779108038E+01 -0.50858397537E+00  0.18540619931E+02  0.18712383254E+02  0.00000000000E+00 0. -1.
         11    1    1    2    0    0 -0.68178739602E+01 -0.68532479448E+00 -0.44494262764E+02  0.45018801565E+02  0.00000000000E+00 0. -1.
        -15    1    1    2    0    0  0.46132294664E+01  0.28413903493E+01  0.22685608559E+02  0.23391236606E+02  0.17770000000E+01 0.  1.
         15    1    1    2    0    0 -0.27326631005E+00 -0.16474815794E+01  0.32680342733E+01  0.40775785759E+01  0.17770000000E+01 0.  1.
</event>
<event>
 6    1  0.3691007E-002  0.3865247E+02  0.7546771E-02  0.1356089E+00
        -11   -1    0    0    0    0  0.00000000000E+00  0.00000000000E+00  0.45600000000E+02  0.45600000000E+02  0.00000000000E+00 0. -1.
         11   -1    0    0    0    0 -0.00000000000E+00 -0.00000000000E+00 -0.45600000000E+02  0.45600000000E+02  0.00000000000E+00 0. -1.
        -11    1    1    2    0    0 -0.57637726346E+00  0.16487042412E+01  0.38854997934E+02  0.38894232232E+02  0.00000000000E+00 0. -1.
         11    1    1    2    0    0  0.26563231192E+01  0.48853646956E+01 -0.38314673643E+02  0.38716108497E+02  0.00000000000E+00 0. -1.
        -15    1    1    2    0    0  0.41871992281E+01 -0.24110611758E+01 -0.23679542935E+01  0.56666383249E+01  0.17770000000E+01 0.  1.
         15    1    1    2    0    0 -0.62671450838E+01 -0.41230077610E+01  0.18276300027E+01  0.79230209470E+01  0.17770000000E+01 0. -1.
</event>
<event>
 6    1  0.3691007E-002  0.5023224E+02  0.7546771E-02  0.1296863E+00
        -11   -1    0    0    0    0  0.00000000000E+00  0.00000000000E+00  0.45600000000E+02  0.45600000000E+02  0.00000000000E+00 0. -1.
         11   -1    0    0    0    0 -0.00000000000E+00 -0.00000000000E+00 -0.45600000000E+02  0.45600000000E+02  0.00000000000E+00 0. -1.
        -11    1    1    2    0    0 -0.82993259507E+01 -0.25754482033E+01  0.19149972667E+02  0.21029341355E+02  0.00000000000E+00 0. -1.
         11    1    1    2    0    0  0.13210623398E+00 -0.14387444688E+01 -0.40942271283E+02  0.40967755803E+02  0.00000000000E+00 0. -1.
        -15    1    1    2    0    0 -0.49044934302E+01 -0.93794751438E+00  0.69037209491E+01  0.87036138063E+01  0.17770000000E+01 0.  1.
         15    1    1    2    0    0  0.13071713147E+02  0.49521401865E+01  0.14888577667E+02  0.20499289036E+02  0.17770000000E+01 0. -1.
</event>
<event>
 6    1  0.3691007E-002  0.4952658E+02  0.7546771E-02  0.1299925E+00
        -11   -1    0    0    0    0  0.00000000000E+00  0.00000000000E+00  0.45600000000E+02  0.45600000000E+02  0.00000000000E+00 0.  1.
         11   -1    0    0    0    0 -0.00000000000E+00 -0.00000000000E+00 -0.45600000000E+02  0.45600000000E+02  0.00000000000E+00 0. -1.
        -11    1    1    2    0    0  0.83588000761E+00 -0.23794629375E+01  0.41597037721E+02  0.41673421823E+02  0.00000000000E+00 0.  1.
         11    1    1    2    0    0 -0.35860247744E+00 -0.42365986998E+00 -0.34962611012E+02  0.34967016633E+02  0.00000000000E+00 0. -1.
        -15    1    1    2    0    0 -0.12335137717E+01  0.16719519393E+00  0.33850643877E+01  0.40206840671E+01  0.17770000000E+01 0.  1.
         15    1    1    2    0    0  0.75623624156E+00  0.26359276136E+01 -0.10019491096E+02  0.10538877477E+02  0.17770000000E+01 0. -1.
</event>
<event>
 6    1  0.3691007E-002  0.4137242E+02  0.7546771E-02  0.1340192E+00
        -11   -1    0    0    0    0  0.00000000000E+00  0.00000000000E+00  0.45600000000E+02  0.45600000000E+02  0.00000000000E+00 0. -1.
         11   -1    0    0    0    0 -0.00000000000E+00 -0.00000000000E+00 -0.45600000000E+02  0.45600000000E+02  0.00000000000E+00 0.  1.
        -11    1    1    2    0    0 -0.15367404750E+00  0.17405962208E+01  0.40597227422E+02  0.40634814695E+02  0.00000000000E+00 0. -1.
         11    1    1    2    0    0 -0.13274116867E+01  0.62602290386E+00 -0.42146056788E+02  0.42171602166E+02  0.00000000000E+00 0.  1.
        -15    1    1    2    0    0  0.27914347914E+01  0.45215716571E+00 -0.15279182307E+01  0.36727125421E+01  0.17770000000E+01 0.  1.
         15    1    1    2    0    0 -0.13103490571E+01 -0.28187762904E+01  0.30767475966E+01  0.47208705977E+01  0.17770000000E+01 0. -1.
</event>
<event>
 6    1  0.3691007E-002  0.4618024E+02  0.7546771E-02  0.1315286E+00
        -11   -1    0    0    0    0  0.00000000000E+00  0.00000000000E+00  0.45600000000E+02  0.45600000000E+02  0.00000000000E+00 0.  1.
         11   -1    0    0    0    0 -0.00000000000E+00 -0.00000000000E+00 -0.45600000000E+02  0.45600000000E+02  0.00000000000E+00 0. -1.
        -11    1    1    2    0    0 -0.24538959297E+00  0.60835019377E+00  0.32639034417E+02  0.32645625644E+02  0.00000000000E+00 0.  1.
         11    1    1    2    0    0 -0.44331429961E+00 -0.85240017329E+00 -0.45009510170E+02  0.45019763652E+02  0.00000000000E+00 0. -1.
        -15    1    1    2    0    0  0.22365387153E+01 -0.71905207480E+00  0.66741765570E+01  0.72953069178E+01  0.17770000000E+01 0.  1.
         15    1    1    2    0    0 -0.15478348227E+01  0.96310205431E+00  0.56962991955E+01  0.62393037857E+01  0.17770000000E+01 0.  1.
</event>
<event>
 6    1  0.3691007E-002  0.4669633E+02  0.7546771E-02  0.1312821E+00
        -11   -1    0    0    0    0  0.00000000000E+00  0.00000000000E+00  0.45600000000E+02  0.45600000000E+02  0.00000000000E+00 0.  1.
         11   -1    0    0    0    0 -0.00000000000E+00 -0.00000000000E+00 -0.45600000000E+02  0.45600000000E+02  0.00000000000E+00 0.  1.
        -11    1    1    2    0    0  0.19065080985E+01 -0.52863637379E+00  0.19358666827E+02  0.19459501814E+02  0.00000000000E+00 0.  1.
         11    1    1    2    0    0  0.19472133594E+00 -0.92734501410E+00 -0.44493584483E+02  0.44503673391E+02  0.00000000000E+00 0.  1.
        -15    1    1    2    0    0 -0.33742500100E+01 -0.14997596116E+01  0.22079707007E+02  0.22456759172E+02  0.17770000000E+01 0.  1.
         15    1    1    2    0    0  0.12730205755E+01  0.29557409995E+01  0.30552106494E+01  0.47800656223E+01  0.17770000000E+01 0. -1.
</event>
<event>
 6    1  0.3691007E-002  0.4734557E+02  0.7546771E-02  0.1309772E+00
        -11   -1    0    0    0    0  0.00000000000E+00  0.00000000000E+00  0.45600000000E+02  0.45600000000E+02  0.00000000000E+00 0. -1.
         11   -1    0    0    0    0 -0.00000000000E+00 -0.00000000000E+00 -0.45600000000E+02  0.45600000000E+02  0.00000000000E+00 0. -1.
        -11    1    1    2    0    0 -0.48126953125E+00  0.63504835715E+00  0.43847193355E+02  0.43854432750E+02  0.00000000000E+00 0. -1.
         11    1    1    2    0    0 -0.43715733954E-01 -0.69603303550E+00 -0.30773207094E+02  0.30781108621E+02  0.00000000000E+00 0. -1.
        -15    1    1    2    0    0 -0.18203482040E+01 -0.80015022512E+00  0.44371710955E+00  0.27034277944E+01  0.17770000000E+01 0. -1.
         15    1    1    2    0    0  0.23453334692E+01  0.86113490347E+00 -0.13517703370E+02  0.13861030834E+02  0.17770000000E+01 0.  1.
</event>
<event>
 6    1  0.3691007E-002  0.4699111E+02  0.7546771E-02  0.1311429E+00
        -11   -1    0    0    0    0  0.00000000000E+00  0.00000000000E+00  0.45600000000E+02  0.45600000000E+02  0.00000000000E+00 0. -1.
         11   -1    0    0    0    0 -0.00000000000E+00 -0.00000000000E+00 -0.45600000000E+02  0.45600000000E+02  0.00000000000E+00 0.  1.
        -11    1    1    2    0    0 -0.58716272792E+00 -0.99719732280E+00  0.25575791700E+02  0.25601958590E+02  0.00000000000E+00 0. -1.
         11    1    1    2    0    0 -0.47162597937E+00 -0.52488759646E+00 -0.44203261723E+02  0.44208893732E+02  0.00000000000E+00 0.  1.
        -15    1    1    2    0    0 -0.39297379232E+01  0.25147969764E-01  0.12132572131E+02  0.12876354612E+02  0.17770000000E+01 0. -1.
         15    1    1    2    0    0  0.49885266305E+01  0.14969369495E+01  0.64948978914E+01  0.85127930665E+01  0.17770000000E+01 0. -1.
</event>
<event>
 6    1  0.3691007E-002  0.4733263E+02  0.7546771E-02  0.1309832E+00
        -11   -1    0    0    0    0  0.00000000000E+00  0.00000000000E+00  0.45600000000E+02  0.45600000000E+02  0.00000000000E+00 0.  1.
         11   -1    0    0    0    0 -0.00000000000E+00 -0.00000000000E+00 -0.45600000000E+02  0.45600000000E+02  0.00000000000E+00 0.  1.
        -11    1    1    2    0    0  0.97732087878E+00 -0.12554489817E+01  0.40276115312E+02  0.40307527496E+02  0.00000000000E+00 0.  1.
         11    1    1    2    0    0  0.22009778144E+01  0.10817799870E+01 -0.43798761014E+02  0.43867368484E+02  0.00000000000E+00 0.  1.
        -15    1    1    2    0    0 -0.70743874437E+00 -0.25060667581E+00 -0.47137654615E+00  0.19857487583E+01  0.17770000000E+01 0. -1.
         15    1    1    2    0    0 -0.24708599488E+01  0.42427567056E+00  0.39940222489E+01  0.50393552619E+01  0.17770000000E+01 0.  1.
</event>
<event>
 6    1  0.3691007E-002  0.4765866E+02  0.7546771E-02  0.1308321E+00
        -11   -1    0    0    0    0  0.00000000000E+00  0.00000000000E+00  0.45600000000E+02  0.45600000000E+02  0.00000000000E+00 0. -1.
         11   -1    0    0    0    0 -0.00000000000E+00 -0.00000000000E+00 -0.45600000000E+02  0.45600000000E+02  0.00000000000E+00 0. -1.
        -11    1    1    2    0    0 -0.56435325388E+01  0.29330395478E+01  0.43074313845E+02  0.43541344647E+02  0.00000000000E+00 0. -1.
         11    1    1    2    0    0  0.26568278501E+01  0.10601846438E+00 -0.33294117016E+02  0.33400122785E+02  0.00000000000E+00 0. -1.
        -15    1    1    2    0    0  0.43787477534E+01 -0.52999558321E+01 -0.58981626054E+01  0.92308729181E+01  0.17770000000E+01 0. -1.
         15    1    1    2    0    0 -0.13920430647E+01  0.22608978199E+01 -0.38820342229E+01  0.50276596498E+01  0.17770000000E+01 0.  1.
</event>
<event>
 6    1  0.3691007E-002  0.4617243E+02  0.7546771E-02  0.1315324E+00
        -11   -1    0    0    0    0  0.00000000000E+00  0.00000000000E+00  0.45600000000E+02  0.45600000000E+02  0.00000000000E+00 0. -1.
         11   -1    0    0    0    0 -0.00000000000E+00 -0.00000000000E+00 -0.45600000000E+02  0.45600000000E+02  0.00000000000E+00 0.  1.
        -11    1    1    2    0    0 -0.10904525576E+01  0.12620925058E+01  0.44996669032E+02  0.45027571423E+02  0.00000000000E+00 0. -1.
         11    1    1    2    0    0 -0.49098445366E+00 -0.87535133104E+00 -0.34557021615E+02  0.34571593087E+02  0.00000000000E+00 0.  1.
        -15    1    1    2    0    0  0.29404391699E+00  0.68434309587E+00 -0.76708890543E+01  0.79091753793E+01  0.17770000000E+01 0.  1.
         15    1    1    2    0    0  0.12873930943E+01 -0.10710842706E+01 -0.27687583630E+01  0.36916601098E+01  0.17770000000E+01 0.  1.
</event>
<event>
 6    1  0.3691007E-002  0.4615333E+02  0.7546771E-02  0.1315416E+00
        -11   -1    0    0    0    0  0.00000000000E+00  0.00000000000E+00  0.45600000000E+02  0.45600000000E+02  0.00000000000E+00 0.  1.
         11   -1    0    0    0    0 -0.00000000000E+00 -0.00000000000E+00 -0.45600000000E+02  0.45600000000E+02  0.00000000000E+00 0. -1.
        -11    1    1    2    0    0 -0.19327996110E+01  0.23616927836E+01  0.20451626641E+02  0.20678064208E+02  0.00000000000E+00 0.  1.
         11    1    1    2    0    0 -0.10679079249E+01  0.39686834189E+00 -0.45032259297E+02  0.45046668126E+02  0.00000000000E+00 0. -1.
        -15    1    1    2    0    0  0.10417501451E+01 -0.15157241478E+00  0.15900217610E+02  0.16033803872E+02  0.17770000000E+01 0. -1.
         15    1    1    2    0    0  0.19589573908E+01 -0.26069887107E+01  0.86804150468E+01  0.94414637945E+01  0.17770000000E+01 0.  1.
</event>
<event>
 6    1  0.3691007E-002  0.4787359E+02  0.7546771E-02  0.1307333E+00
        -11   -1    0    0    0    0  0.00000000000E+00  0.00000000000E+00  0.45600000000E+02  0.45600000000E+02  0.00000000000E+00 0.  1.
         11   -1    0    0    0    0 -0.00000000000E+00 -0.00000000000E+00 -0.45600000000E+02  0.45600000000E+02  0.00000000000E+00 0. -1.
        -11    1    1    2    0    0 -0.60618340095E+00  0.13948156677E+01  0.43299713858E+02  0.43326414452E+02  0.00000000000E+00 0.  1.
         11    1    1    2    0    0 -0.32903173262E+00  0.16315285332E+01 -0.22999316000E+02  0.23059459744E+02  0.00000000000E+00 0. -1.
        -15    1    1    2    0    0  0.39374516013E+01 -0.36890341101E+01 -0.17751398315E+01  0.59515836716E+01  0.17770000000E+01 0.  1.
         15    1    1    2    0    0 -0.30022364678E+01  0.66268990929E+00 -0.18525258027E+02  0.18862542132E+02  0.17770000000E+01 0. -1.
</event>
<event>
 6    1  0.3691007E-002  0.4721841E+02  0.7546771E-02  0.1310364E+00
        -11   -1    0    0    0    0  0.00000000000E+00  0.00000000000E+00  0.45600000000E+02  0.45600000000E+02  0.00000000000E+00 0.  1.
         11   -1    0    0    0    0 -0.00000000000E+00 -0.00000000000E+00 -0.45600000000E+02  0.45600000000E+02  0.00000000000E+00 0.  1.
        -11    1    1    2    0    0  0.86274753016E+00  0.43045321119E+00  0.43971023244E+02  0.43981592836E+02  0.00000000000E+00 0.  1.
         11    1    1    2    0    0 -0.21890148640E+00 -0.54488849558E+00 -0.34605728392E+02  0.34610710176E+02  0.00000000000E+00 0.  1.
        -15    1    1    2    0    0  0.34046905942E+01 -0.36732558752E+00 -0.54815254938E+01  0.67031109844E+01  0.17770000000E+01 0.  1.
         15    1    1    2    0    0 -0.40485366380E+01  0.48176087191E+00 -0.38837693584E+01  0.59045860038E+01  0.17770000000E+01 0. -1.
</event>
<event>
 6    1  0.3691007E-002  0.4629705E+02  0.7546771E-02  0.1314725E+00
        -11   -1    0    0    0    0  0.00000000000E+00  0.00000000000E+00  0.45600000000E+02  0.45600000000E+02  0.00000000000E+00 0.  1.
         11   -1    0    0    0    0 -0.00000000000E+00 -0.00000000000E+00 -0.45600000000E+02  0.45600000000E+02  0.00000000000E+00 0. -1.
        -11    1    1    2    0    0  0.73170975821E+00  0.27168289236E+00  0.20038628317E+02  0.20053823466E+02  0.00000000000E+00 0.  1.
         11    1    1    2    0    0 -0.91512267375E+00 -0.37336577843E+00 -0.44892076294E+02  0.44902954975E+02  0.00000000000E+00 0. -1.
        -15    1    1    2    0    0  0.57375075661E+00 -0.49333913819E+00  0.76269113566E+00  0.20765356256E+01  0.17770000000E+01 0. -1.
         15    1    1    2    0    0 -0.39033784107E+00  0.59502202426E+00  0.24090756841E+02  0.24166685934E+02  0.17770000000E+01 0.  1.
</event>
<event>
 6    1  0.3691007E-002  0.4942815E+02  0.7546771E-02  0.1300357E+00
        -11   -1    0    0    0    0  0.00000000000E+00  0.00000000000E+00  0.45600000000E+02  0.45600000000E+02  0.00000000000E+00 0. -1.
         11   -1    0    0    0    0 -0.00000000000E+00 -0.00000000000E+00 -0.45600000000E+02  0.45600000000E+02  0.00000000000E+00 0. -1.
        -11    1    1    2    0    0  0.26935858748E+01 -0.40701674379E+01  0.17825388277E+02  0.18481507922E+02  0.00000000000E+00 0. -1.
         11    1    1    2    0    0 -0.21034002024E+01 -0.10774813345E+02 -0.40303431612E+02  0.41771850507E+02  0.00000000000E+00 0. -1.
        -15    1    1    2    0    0 -0.27252640913E+01  0.12660817094E+01  0.14584223836E+02  0.14996244235E+02  0.17770000000E+01 0. -1.
         15    1    1    2    0    0  0.21350784188E+01  0.13578899073E+02  0.78938194992E+01  0.15950397336E+02  0.17770000000E+01 0.  1.
</event>
<event>
 6    1  0.3691007E-002  0.4628984E+02  0.7546771E-02  0.1314760E+00
        -11   -1    0    0    0    0  0.00000000000E+00  0.00000000000E+00  0.45600000000E+02  0.45600000000E+02  0.00000000000E+00 0.  1.
         11   -1    0    0    0    0 -0.00000000000E+00 -0.00000000000E+00 -0.45600000000E+02  0.45600000000E+02  0.00000000000E+00 0. -1.
        -11    1    1    2    0    0  0.54700177958E+00 -0.78302822694E+00  0.13579288556E+02  0.13612840330E+02  0.00000000000E+00 0.  1.
         11    1    1    2    0    0 -0.16467123028E+01 -0.22285071003E+01 -0.44824593293E+02  0.44910155524E+02  0.00000000000E+00 0. -1.
        -15    1    1    2    0    0 -0.79080837639E-01  0.51591676704E+01  0.26445547140E+02  0.27002739812E+02  0.17770000000E+01 0.  1.
         15    1    1    2    0    0  0.11787913609E+01 -0.21476323432E+01  0.47997575970E+01  0.56742643351E+01  0.17770000000E+01 0. -1.
</event>
<event>
 6    1  0.3691007E-002  0.4111663E+02  0.7546771E-02  0.1341626E+00
        -11   -1    0    0    0    0  0.00000000000E+00  0.00000000000E+00  0.45600000000E+02  0.45600000000E+02  0.00000000000E+00 0.  1.
         11   -1    0    0    0    0 -0.00000000000E+00 -0.00000000000E+00 -0.45600000000E+02  0.45600000000E+02  0.00000000000E+00 0.  1.
        -11    1    1    2    0    0 -0.11759856050E+01  0.37629071914E+00  0.10960922007E+02  0.11030246964E+02  0.00000000000E+00 0.  1.
         11    1    1    2    0    0  0.99206953278E+01  0.38798975545E+01 -0.42559832065E+02  0.43872692033E+02  0.00000000000E+00 0.  1.
        -15    1    1    2    0    0 -0.10794892631E+02 -0.37031110809E+01  0.12581248524E+02  0.17078884097E+02  0.17770000000E+01 0.  1.
         15    1    1    2    0    0  0.20501829077E+01 -0.55307719279E+00  0.19017661535E+02  0.19218176906E+02  0.17770000000E+01 0.  1.
</event>
<event>
 6    1  0.3691007E-002  0.4649577E+02  0.7546771E-02  0.1313775E+00
        -11   -1    0    0    0    0  0.00000000000E+00  0.00000000000E+00  0.45600000000E+02  0.45600000000E+02  0.00000000000E+00 0. -1.
         11   -1    0    0    0    0 -0.00000000000E+00 -0.00000000000E+00 -0.45600000000E+02  0.45600000000E+02  0.00000000000E+00 0.  1.
        -11    1    1    2    0    0 -0.44730538288E+01  0.43843079751E+01  0.44263282660E+02  0.44704234238E+02  0.00000000000E+00 0. -1.
         11    1    1    2    0    0 -0.36168760528E+00  0.42417423566E+00 -0.23958035164E+02  0.23964519412E+02  0.00000000000E+00 0.  1.
        -15    1    1    2    0    0  0.19958289737E+01  0.95019749412E+00 -0.38768201408E+01  0.48035062167E+01  0.17770000000E+01 0. -1.
         15    1    1    2    0    0  0.28389124604E+01 -0.57586797049E+01 -0.16428427355E+02  0.17727740134E+02  0.17770000000E+01 0.  1.
</event>
<event>
 6    1  0.3691007E-002  0.4802324E+02  0.7546771E-02  0.1306648E+00
        -11   -1    0    0    0    0  0.00000000000E+00  0.00000000000E+00  0.45600000000E+02  0.45600000000E+02  0.00000000000E+00 0.  1.
         11   -1    0    0    0    0 -0.00000000000E+00 -0.00000000000E+00 -0.45600000000E+02  0.45600000000E+02  0.00000000000E+00 0.  1.
        -11    1    1    2    0    0 -0.15277075673E+01 -0.97979506430E+00  0.33203199007E+02  0.33252763991E+02  0.00000000000E+00 0.  1.
         11    1    1    2    0    0  0.12638135463E+01  0.27367515124E-01 -0.43158250942E+02  0.43176759930E+02  0.00000000000E+00 0.  1.
        -15    1    1    2    0    0 -0.34391042899E+01 -0.24469935481E+01  0.15841717935E+01  0.48458791784E+01  0.17770000000E+01 0. -1.
         15    1    1    2    0    0  0.37029983108E+01  0.33994210973E+01  0.83708801417E+01  0.99245969003E+01  0.17770000000E+01 0.  1.
</event>
<event>
 6    1  0.3691007E-002  0.4645461E+02  0.7546771E-02  0.1313971E+00
        -11   -1    0    0    0    0  0.00000000000E+00  0.00000000000E+00  0.45600000000E+02  0.45600000000E+02  0.00000000000E+00 0.  1.
         11   -1    0    0    0    0 -0.00000000000E+00 -0.00000000000E+00 -0.45600000000E+02  0.45600000000E+02  0.00000000000E+00 0. -1.
        -11    1    1    2    0    0  0.81823338189E+00 -0.26297476488E+01  0.44660546485E+02  0.44745385135E+02  0.00000000000E+00 0.  1.
         11    1    1    2    0    0 -0.53386809324E+00  0.22733505946E+00 -0.35948473898E+02  0.35953156634E+02  0.00000000000E+00 0. -1.
        -15    1    1    2    0    0  0.47149574980E+00  0.16906884737E+01 -0.13135752054E+01  0.28220461686E+01  0.17770000000E+01 0.  1.
         15    1    1    2    0    0 -0.75586103844E+00  0.71172411563E+00 -0.73984973811E+01  0.76794120625E+01  0.17770000000E+01 0. -1.
</event>
<event>
 6    1  0.3691007E-002  0.4652419E+02  0.7546771E-02  0.1313639E+00
        -11   -1    0    0    0    0  0.00000000000E+00  0.00000000000E+00  0.45600000000E+02  0.45600000000E+02  0.00000000000E+00 0. -1.
         11   -1    0    0    0    0 -0.00000000000E+00 -0.00000000000E+00 -0.45600000000E+02  0.45600000000E+02  0.00000000000E+00 0.  1.
        -11    1    1    2    0    0  0.34793110996E+00 -0.12067797784E+01  0.44658149075E+02  0.44675806118E+02  0.00000000000E+00 0. -1.
         11    1    1    2    0    0 -0.18700694336E+01  0.34072949761E+01 -0.45661664737E+01  0.59963901646E+01  0.00000000000E+00 0.  1.
        -15    1    1    2    0    0  0.27003720288E+01 -0.84559601967E+00 -0.19927260798E+02  0.20205457026E+02  0.17770000000E+01 0.  1.
         15    1    1    2    0    0 -0.11782337052E+01 -0.13549191781E+01 -0.20164721803E+02  0.20322346691E+02  0.17770000000E+01 0.  1.
</event>
<event>
 6    1  0.3691007E-002  0.3780097E+02  0.7546771E-02  0.1361380E+00
        -11   -1    0    0    0    0  0.00000000000E+00  0.00000000000E+00  0.45600000000E+02  0.45600000000E+02  0.00000000000E+00 0.  1.
         11   -1    0    0    0    0 -0.00000000000E+00 -0.00000000000E+00 -0.45600000000E+02  0.45600000000E+02  0.00000000000E+00 0. -1.
        -11    1    1    2    0    0 -0.15357036651E+01 -0.21190027317E+00  0.38253672369E+02  0.38285071989E+02  0.00000000000E+00 0.  1.
         11    1    1    2    0    0 -0.54448968658E-01  0.78792771304E+00 -0.37333035883E+02  0.37341389409E+02  0.00000000000E+00 0. -1.
        -15    1    1    2    0    0  0.52576564099E+01 -0.48642018878E+01  0.35202257376E+01  0.81763762862E+01  0.17770000000E+01 0.  1.
         15    1    1    2    0    0 -0.36675037761E+01  0.42881744479E+01 -0.44408622233E+01  0.73971623161E+01  0.17770000000E+01 0. -1.
</event>
<event>
 6    1  0.3691007E-002  0.4752456E+02  0.7546771E-02  0.1308941E+00
        -11   -1    0    0    0    0  0.00000000000E+00  0.00000000000E+00  0.45600000000E+02  0.45600000000E+02  0.00000000000E+00 0.  1.
         11   -1    0    0    0    0 -0.00000000000E+00 -0.00000000000E+00 -0.45600000000E+02  0.45600000000E+02  0.00000000000E+00 0. -1.
        -11    1    1    2    0    0  0.55200256517E+00 -0.18449038889E-01  0.37147699939E+02  0.37151805581E+02  0.00000000000E+00 0.  1.
         11    1    1    2    0    0  0.30087986923E+01 -0.51208933498E+01 -0.43269710325E+02  0.43675442183E+02  0.00000000000E+00 0. -1.
        -15    1    1    2    0    0 -0.24955921035E+01  0.54731046509E+01  0.44712477342E+01  0.77027683184E+01  0.17770000000E+01 0.  1.
         15    1    1    2    0    0 -0.10652091540E+01 -0.33376226226E+00  0.16507626519E+01  0.26699839180E+01  0.17770000000E+01 0. -1.
</event>
<event>
 6    1  0.3691007E-002  0.4767695E+02  0.7546771E-02  0.1308237E+00
        -11   -1    0    0    0    0  0.00000000000E+00  0.00000000000E+00  0.45600000000E+02  0.45600000000E+02  0.00000000000E+00 0.  1.
         11   -1    0    0    0    0 -0.00000000000E+00 -0.00000000000E+00 -0.45600000000E+02  0.45600000000E+02  0.00000000000E+00 0.  1.
        -11    1    1    2    0    0 -0.13397688471E+01  0.12995986041E+01  0.43483008129E+02  0.43523050595E+02  0.00000000000E+00 0.  1.
         11    1    1    2    0    0  0.61077184652E+00 -0.31255906562E+00 -0.42286307045E+02  0.42291872729E+02  0.00000000000E+00 0.  1.
        -15    1    1    2    0    0 -0.13190012260E+01  0.15624875290E+00 -0.10068452564E+01  0.24363177702E+01  0.17770000000E+01 0. -1.
         15    1    1    2    0    0  0.20479982265E+01 -0.11432882914E+01 -0.18985582803E+00  0.29487589064E+01  0.17770000000E+01 0. -1.
</event>
<event>
 6    1  0.3691007E-002  0.3880002E+02  0.7546771E-02  0.1355188E+00
        -11   -1    0    0    0    0  0.00000000000E+00  0.00000000000E+00  0.45600000000E+02  0.45600000000E+02  0.00000000000E+00 0.  1.
         11   -1    0    0    0    0 -0.00000000000E+00 -0.00000000000E+00 -0.45600000000E+02  0.45600000000E+02  0.00000000000E+00 0.  1.
        -11    1    1    2    0    0 -0.61982151138E+00 -0.21585586613E+00  0.40875565064E+02  0.40880834039E+02  0.00000000000E+00 0.  1.
         11    1    1    2    0    0  0.50321104446E+01 -0.53038055702E+01 -0.36440224758E+02  0.37166415881E+02  0.00000000000E+00 0.  1.
        -15    1    1    2    0    0 -0.44101762722E+01  0.35625213151E+01 -0.71951896445E+01  0.93311143971E+01  0.17770000000E+01 0. -1.
         15    1    1    2    0    0 -0.21126610770E-02  0.19571401212E+01  0.27598493389E+01  0.38216356826E+01  0.17770000000E+01 0.  1.
</event>
<event>
 6    1  0.3691007E-002  0.4736211E+02  0.7546771E-02  0.1309695E+00
        -11   -1    0    0    0    0  0.00000000000E+00  0.00000000000E+00  0.45600000000E+02  0.45600000000E+02  0.00000000000E+00 0. -1.
         11   -1    0    0    0    0 -0.00000000000E+00 -0.00000000000E+00 -0.45600000000E+02  0.45600000000E+02  0.00000000000E+00 0.  1.
        -11    1    1    2    0    0 -0.60554137698E+00  0.26361576534E+00  0.40235697962E+02  0.40241117829E+02  0.00000000000E+00 0. -1.
         11    1    1    2    0    0 -0.92423667700E+00 -0.82679076270E-01 -0.43828071401E+02  0.43837893335E+02  0.00000000000E+00 0.  1.
        -15    1    1    2    0    0  0.25874959970E+01  0.70012356504E+00  0.43521863411E+00  0.32453740617E+01  0.17770000000E+01 0. -1.
         15    1    1    2    0    0 -0.10577179430E+01 -0.88106025412E+00  0.31571548049E+01  0.38756147745E+01  0.17770000000E+01 0.  1.
</event>
<event>
 6    1  0.3691007E-002  0.4711370E+02  0.7546771E-02  0.1310854E+00
        -11   -1    0    0    0    0  0.00000000000E+00  0.00000000000E+00  0.45600000000E+02  0.45600000000E+02  0.00000000000E+00 0.  1.
         11   -1    0    0    0    0 -0.00000000000E+00 -0.00000000000E+00 -0.45600000000E+02  0.45600000000E+02  0.00000000000E+00 0. -1.
        -11    1    1    2    0    0 -0.44587572377E+00 -0.86741612931E+00  0.44075508103E+02  0.44086297536E+02  0.00000000000E+00 0.  1.
         11    1    1    2    0    0  0.87656144152E+00 -0.47894971030E+00 -0.40671162313E+02  0.40683426561E+02  0.00000000000E+00 0. -1.
        -15    1    1    2    0    0  0.42866639201E+00 -0.40517438713E+00  0.28537537835E+00  0.18939612631E+01  0.17770000000E+01 0.  1.
         15    1    1    2    0    0 -0.85935210976E+00  0.17515402267E+01 -0.36897211682E+01  0.45363146401E+01  0.17770000000E+01 0.  1.
</event>
<event>
 6    1  0.3691007E-002  0.4690749E+02  0.7546771E-02  0.1311823E+00
        -11   -1    0    0    0    0  0.00000000000E+00  0.00000000000E+00  0.45600000000E+02  0.45600000000E+02  0.00000000000E+00 0. -1.
         11   -1    0    0    0    0 -0.00000000000E+00 -0.00000000000E+00 -0.45600000000E+02  0.45600000000E+02  0.00000000000E+00 0.  1.
        -11    1    1    2    0    0 -0.10707953017E+00 -0.27835956161E+01  0.37216329776E+02  0.37320437733E+02  0.00000000000E+00 0. -1.
         11    1    1    2    0    0 -0.51378052069E+00  0.44468807377E+00 -0.44287295332E+02  0.44292507783E+02  0.00000000000E+00 0.  1.
        -15    1    1    2    0    0  0.18455036912E+01  0.30384378749E+01  0.56579235153E+01  0.69143196410E+01  0.17770000000E+01 0.  1.
         15    1    1    2    0    0 -0.12246436403E+01 -0.69953033256E+00  0.14130420408E+01  0.26727348430E+01  0.17770000000E+01 0. -1.
</event>
<event>
 6    1  0.3691007E-002  0.4843848E+02  0.7546771E-02  0.1304763E+00
        -11   -1    0    0    0    0  0.00000000000E+00  0.00000000000E+00  0.45600000000E+02  0.45600000000E+02  0.00000000000E+00 0.  1.
         11   -1    0    0    0    0 -0.00000000000E+00 -0.00000000000E+00 -0.45600000000E+02  0.45600000000E+02  0.00000000000E+00 0.  1.
        -11    1    1    2    0    0 -0.71097640704E+00  0.11421717892E+01  0.42740345865E+02  0.42761515507E+02  0.00000000000E+00 0.  1.
         11    1    1    2    0    0 -0.87620007640E+00 -0.46083045179E+00 -0.41165700995E+02  0.41177603496E+02  0.00000000000E+00 0.  1.
        -15    1    1    2    0    0  0.23902499564E+01 -0.10849093189E+01 -0.33363516250E+01  0.46020967233E+01  0.17770000000E+01 0.  1.
         15    1    1    2    0    0 -0.80307347296E+00  0.40356798151E+00  0.17617067556E+01  0.26587842732E+01  0.17770000000E+01 0. -1.
</event>
<event>
 6    1  0.3691007E-002  0.5288243E+02  0.7546771E-02  0.1285860E+00
        -11   -1    0    0    0    0  0.00000000000E+00  0.00000000000E+00  0.45600000000E+02  0.45600000000E+02  0.00000000000E+00 0.  1.
         11   -1    0    0    0    0 -0.00000000000E+00 -0.00000000000E+00 -0.45600000000E+02  0.45600000000E+02  0.00000000000E+00 0. -1.
        -11    1    1    2    0    0 -0.46073843679E+00 -0.27974504017E+00  0.38313778016E+02  0.38317569378E+02  0.00000000000E+00 0.  1.
         11    1    1    2    0    0 -0.37961542068E+01 -0.54386223399E+01 -0.10471713839E+02  0.12395410055E+02  0.00000000000E+00 0. -1.
        -15    1    1    2    0    0  0.32767658446E+01  0.45485933575E+01 -0.33683719598E+02  0.34193238964E+02  0.17770000000E+01 0. -1.
         15    1    1    2    0    0  0.98012679895E+00  0.11697740226E+01  0.58416554209E+01  0.62937816027E+01  0.17770000000E+01 0. -1.
</event>
<event>
 6    1  0.3691007E-002  0.4934746E+02  0.7546771E-02  0.1300712E+00
        -11   -1    0    0    0    0  0.00000000000E+00  0.00000000000E+00  0.45600000000E+02  0.45600000000E+02  0.00000000000E+00 0.  1.
         11   -1    0    0    0    0 -0.00000000000E+00 -0.00000000000E+00 -0.45600000000E+02  0.45600000000E+02  0.00000000000E+00 0. -1.
        -11    1    1    2    0    0  0.53823266908E+00 -0.98799273370E+00  0.32188066108E+02  0.32207723047E+02  0.00000000000E+00 0.  1.
         11    1    1    2    0    0 -0.20843047289E+01 -0.12015138752E+01 -0.41783332351E+02  0.41852536651E+02  0.00000000000E+00 0. -1.
        -15    1    1    2    0    0 -0.17015673566E+01 -0.19359412774E+01  0.10987354946E+02  0.11424661825E+02  0.17770000000E+01 0.  1.
         15    1    1    2    0    0  0.32476394164E+01  0.41254478863E+01 -0.13920887036E+01  0.57150784772E+01  0.17770000000E+01 0. -1.
</event>
<event>
 6    1  0.3691007E-002  0.4744226E+02  0.7546771E-02  0.1309322E+00
        -11   -1    0    0    0    0  0.00000000000E+00  0.00000000000E+00  0.45600000000E+02  0.45600000000E+02  0.00000000000E+00 0. -1.
         11   -1    0    0    0    0 -0.00000000000E+00 -0.00000000000E+00 -0.45600000000E+02  0.45600000000E+02  0.00000000000E+00 0. -1.
        -11    1    1    2    0    0 -0.22309558919E+00 -0.58451787445E+00  0.42378553605E+02  0.42383171642E+02  0.00000000000E+00 0. -1.
         11    1    1    2    0    0 -0.10222720280E+01  0.14262145523E+00 -0.43745569454E+02  0.43757744776E+02  0.00000000000E+00 0. -1.
        -15    1    1    2    0    0  0.16944457109E+01  0.11325859016E+01  0.15066627035E+01  0.30954254302E+01  0.17770000000E+01 0. -1.
         15    1    1    2    0    0 -0.44907809366E+00 -0.69068948233E+00 -0.13964685371E+00  0.19636581523E+01  0.17770000000E+01 0. -1.
</event>
<event>
 6    1  0.3691007E-002  0.4627078E+02  0.7546771E-02  0.1314851E+00
        -11   -1    0    0    0    0  0.00000000000E+00  0.00000000000E+00  0.45600000000E+02  0.45600000000E+02  0.00000000000E+00 0. -1.
         11   -1    0    0    0    0 -0.00000000000E+00 -0.00000000000E+00 -0.45600000000E+02  0.45600000000E+02  0.00000000000E+00 0.  1.
        -11    1    1    2    0    0 -0.67540405243E+00 -0.55219042966E+00  0.93276135351E+01  0.93683221104E+01  0.00000000000E+00 0. -1.
         11    1    1    2    0    0  0.82988460387E+00  0.10269703233E+01 -0.44909811497E+02  0.44929217055E+02  0.00000000000E+00 0.  1.
        -15    1    1    2    0    0  0.21736207142E+01 -0.26012324792E+01  0.61163298389E+01  0.72151408246E+01  0.17770000000E+01 0.  1.
         15    1    1    2    0    0 -0.23281012656E+01  0.21264525856E+01  0.29465868123E+02  0.29687320010E+02  0.17770000000E+01 0. -1.
</event>
<event>
 6    1  0.3691007E-002  0.4659002E+02  0.7546771E-02  0.1313326E+00
        -11   -1    0    0    0    0  0.00000000000E+00  0.00000000000E+00  0.45600000000E+02  0.45600000000E+02  0.00000000000E+00 0. -1.
         11   -1    0    0    0    0 -0.00000000000E+00 -0.00000000000E+00 -0.45600000000E+02  0.45600000000E+02  0.00000000000E+00 0.  1.
        -11    1    1    2    0    0 -0.25095327257E+00 -0.63235506403E+00  0.44604795214E+02  0.44609983261E+02  0.00000000000E+00 0. -1.
         11    1    1    2    0    0  0.75000201430E+00 -0.18461365930E+00 -0.41654735583E+02  0.41661896041E+02  0.00000000000E+00 0.  1.
        -15    1    1    2    0    0  0.18776397034E+00  0.50812722739E+00 -0.75508796088E+00  0.20053267605E+01  0.17770000000E+01 0. -1.
         15    1    1    2    0    0 -0.68681271208E+00  0.30884149594E+00 -0.21949716700E+01  0.29227939378E+01  0.17770000000E+01 0.  1.
</event>
<event>
 6    1  0.3691007E-002  0.4814093E+02  0.7546771E-02  0.1306112E+00
        -11   -1    0    0    0    0  0.00000000000E+00  0.00000000000E+00  0.45600000000E+02  0.45600000000E+02  0.00000000000E+00 0.  1.
         11   -1    0    0    0    0 -0.00000000000E+00 -0.00000000000E+00 -0.45600000000E+02  0.45600000000E+02  0.00000000000E+00 0. -1.
        -11    1    1    2    0    0 -0.24797090880E+00 -0.44876531378E+01  0.42823864715E+02  0.43059074646E+02  0.00000000000E+00 0.  1.
         11    1    1    2    0    0 -0.12563055297E+01  0.16917414635E+01 -0.39644693803E+02  0.39700655404E+02  0.00000000000E+00 0. -1.
        -15    1    1    2    0    0  0.24476774355E+00  0.30702708476E+01  0.10222395139E+01  0.36998887753E+01  0.17770000000E+01 0. -1.
         15    1    1    2    0    0  0.12595086949E+01 -0.27435917325E+00 -0.42014104260E+01  0.47403811742E+01  0.17770000000E+01 0. -1.
</event>
<event>
 6    1  0.3691007E-002  0.4624311E+02  0.7546771E-02  0.1314984E+00
        -11   -1    0    0    0    0  0.00000000000E+00  0.00000000000E+00  0.45600000000E+02  0.45600000000E+02  0.00000000000E+00 0.  1.
         11   -1    0    0    0    0 -0.00000000000E+00 -0.00000000000E+00 -0.45600000000E+02  0.45600000000E+02  0.00000000000E+00 0. -1.
        -11    1    1    2    0    0  0.13207721310E+01  0.13341787781E+01  0.28260140902E+02  0.28322429907E+02  0.00000000000E+00 0.  1.
         11    1    1    2    0    0  0.73573795665E+00  0.21422303291E+01 -0.44899796138E+02  0.44956892179E+02  0.00000000000E+00 0. -1.
        -15    1    1    2    0    0  0.40643948732E+00 -0.10012470662E+01  0.25192915554E+01  0.32668406275E+01  0.17770000000E+01 0.  1.
         15    1    1    2    0    0 -0.24629495750E+01 -0.24751620410E+01  0.14120363681E+02  0.14653837287E+02  0.17770000000E+01 0. -1.
</event>
<event>
 6    1  0.3691007E-002  0.4618332E+02  0.7546771E-02  0.1315271E+00
        -11   -1    0    0    0    0  0.00000000000E+00  0.00000000000E+00  0.45600000000E+02  0.45600000000E+02  0.00000000000E+00 0. -1.
         11   -1    0    0    0    0 -0.00000000000E+00 -0.00000000000E+00 -0.45600000000E+02  0.45600000000E+02  0.00000000000E+00 0. -1.
        -11    1    1    2    0    0 -0.16740262096E+01  0.65054136406E+00  0.44980843233E+02  0.45016683860E+02  0.00000000000E+00 0. -1.
         11    1    1    2    0    0 -0.11118231062E+00 -0.51188868149E+00 -0.24163039106E+02  0.24168716357E+02  0.00000000000E+00 0. -1.
        -15    1    1    2    0    0 -0.19993143356E+01 -0.64575942497E+00 -0.10851471054E+02  0.11194928141E+02  0.17770000000E+01 0. -1.
         15    1    1    2    0    0  0.37845228558E+01  0.50710674239E+00 -0.99663330733E+01  0.10819671641E+02  0.17770000000E+01 0. -1.
</event>
<event>
 6    1  0.3691007E-002  0.4869960E+02  0.7546771E-02  0.1303589E+00
        -11   -1    0    0    0    0  0.00000000000E+00  0.00000000000E+00  0.45600000000E+02  0.45600000000E+02  0.00000000000E+00 0.  1.
         11   -1    0    0    0    0 -0.00000000000E+00 -0.00000000000E+00 -0.45600000000E+02  0.45600000000E+02  0.00000000000E+00 0.  1.
        -11    1    1    2    0    0 -0.93296384856E+00  0.43324486853E+00  0.42487948067E+02  0.42500398276E+02  0.00000000000E+00 0.  1.
         11    1    1    2    0    0 -0.58790418722E+00  0.23121083383E+00 -0.39764064611E+02  0.39769082517E+02  0.00000000000E+00 0.  1.
        -15    1    1    2    0    0  0.26588337887E+01 -0.33011915419E+01 -0.70351840291E-02  0.45961985604E+01  0.17770000000E+01 0.  1.
         15    1    1    2    0    0 -0.11379657529E+01  0.26367358396E+01 -0.27168482715E+01  0.43343206472E+01  0.17770000000E+01 0. -1.
</event>
<event>
 6    1  0.3691007E-002  0.4950848E+02  0.7546771E-02  0.1300005E+00
        -11   -1    0    0    0    0  0.00000000000E+00  0.00000000000E+00  0.45600000000E+02  0.45600000000E+02  0.00000000000E+00 0.  1.
         11   -1    0    0    0    0 -0.00000000000E+00 -0.00000000000E+00 -0.45600000000E+02  0.45600000000E+02  0.00000000000E+00 0.  1.
        -11    1    1    2    0    0 -0.14761744461E+01  0.10707261980E+01  0.39621804369E+02  0.39663748273E+02  0.00000000000E+00 0.  1.
         11    1    1    2    0    0 -0.25183773985E+00  0.72339192178E+00 -0.41684481802E+02  0.41691518816E+02  0.00000000000E+00 0.  1.
        -15    1    1    2    0    0  0.13289329367E+01  0.26001627823E+00 -0.32037002360E+01  0.39057771848E+01  0.17770000000E+01 0.  1.
         15    1    1    2    0    0  0.39907924932E+00 -0.20541343981E+01  0.52663776684E+01  0.59389557263E+01  0.17770000000E+01 0. -1.
</event>
<event>
 6    1  0.3691007E-002  0.4746495E+02  0.7546771E-02  0.1309217E+00
        -11   -1    0    0    0    0  0.00000000000E+00  0.00000000000E+00  0.45600000000E+02  0.45600000000E+02  0.00000000000E+00 0.  1.
         11   -1    0    0    0    0 -0.00000000000E+00 -0.00000000000E+00 -0.45600000000E+02  0.45600000000E+02  0.00000000000E+00 0. -1.
        -11    1    1    2    0    0  0.41632221388E+00  0.10054178514E+01  0.35955741070E+02  0.35972204619E+02  0.00000000000E+00 0.  1.
         11    1    1    2    0    0  0.22685050100E+00 -0.19668983302E+01 -0.43690205742E+02  0.43735045764E+02  0.00000000000E+00 0. -1.
        -15    1    1    2    0    0  0.85068797058E+00  0.24557631528E+01  0.81163817242E+01  0.87056202524E+01  0.17770000000E+01 0. -1.
         15    1    1    2    0    0 -0.14938606855E+01 -0.14942826740E+01 -0.38191705242E+00  0.27871293641E+01  0.17770000000E+01 0. -1.
</event>
<event>
 6    1  0.3691007E-002  0.4956949E+02  0.7546771E-02  0.1299738E+00
        -11   -1    0    0    0    0  0.00000000000E+00  0.00000000000E+00  0.45600000000E+02  0.45600000000E+02  0.00000000000E+00 0. -1.
         11   -1    0    0    0    0 -0.00000000000E+00 -0.00000000000E+00 -0.45600000000E+02  0.45600000000E+02  0.00000000000E+00 0.  1.
        -11    1    1    2    0    0  0.33015465189E+01  0.35687431242E+01  0.37812168768E+02  0.38123434313E+02  0.00000000000E+00 0. -1.
         11    1    1    2    0    0  0.57838154729E+00 -0.46844862368E+00 -0.41623857464E+02  0.41630511401E+02  0.00000000000E+00 0.  1.
        -15    1    1    2    0    0 -0.35393340473E+00 -0.37899939950E+01 -0.17831231646E+01  0.45636148563E+01  0.17770000000E+01 0.  1.
         15    1    1    2    0    0 -0.35259946615E+01  0.68969949443E+00  0.55948118609E+01  0.68824394297E+01  0.17770000000E+01 0. -1.
</event>
<event>
 6    1  0.3691007E-002  0.4327722E+02  0.7546771E-02  0.1329879E+00
        -11   -1    0    0    0    0  0.00000000000E+00  0.00000000000E+00  0.45600000000E+02  0.45600000000E+02  0.00000000000E+00 0.  1.
         11   -1    0    0    0    0 -0.00000000000E+00 -0.00000000000E+00 -0.45600000000E+02  0.45600000000E+02  0.00000000000E+00 0. -1.
        -11    1    1    2    0    0  0.10381997787E+00 -0.74962368037E+00  0.43663873837E+02  0.43670431561E+02  0.00000000000E+00 0.  1.
         11    1    1    2    0    0 -0.77921607319E+00 -0.93863461625E+00 -0.42889223234E+02  0.42906569220E+02  0.00000000000E+00 0. -1.
        -15    1    1    2    0    0 -0.29099334215E-01  0.99585535128E+00 -0.14275887522E+01  0.24876320663E+01  0.17770000000E+01 0.  1.
         15    1    1    2    0    0  0.70449542953E+00  0.69240294535E+00  0.65293814929E+00  0.21353671524E+01  0.17770000000E+01 0.  1.
</event>
<event>
 6    1  0.3691007E-002  0.4900793E+02  0.7546771E-02  0.1302213E+00
        -11   -1    0    0    0    0  0.00000000000E+00  0.00000000000E+00  0.45600000000E+02  0.45600000000E+02  0.00000000000E+00 0. -1.
         11   -1    0    0    0    0 -0.00000000000E+00 -0.00000000000E+00 -0.45600000000E+02  0.45600000000E+02  0.00000000000E+00 0.  1.
        -11    1    1    2    0    0  0.16641444381E+00  0.58335250862E+00  0.42187711370E+02  0.42192072532E+02  0.00000000000E+00 0. -1.
         11    1    1    2    0    0  0.10157346609E+01 -0.12127157920E+00 -0.41181839669E+02  0.41194542627E+02  0.00000000000E+00 0.  1.
        -15    1    1    2    0    0 -0.24082752086E+01 -0.27201815260E+01 -0.20305838362E+01  0.45255029257E+01  0.17770000000E+01 0.  1.
         15    1    1    2    0    0  0.12261261039E+01  0.22581005965E+01  0.10247121358E+01  0.32878819151E+01  0.17770000000E+01 0.  1.
</event>
<event>
 6    1  0.3691007E-002  0.4662320E+02  0.7546771E-02  0.1313168E+00
        -11   -1    0    0    0    0  0.00000000000E+00  0.00000000000E+00  0.45600000000E+02  0.45600000000E+02  0.00000000000E+00 0.  1.
         11   -1    0    0    0    0 -0.00000000000E+00 -0.00000000000E+00 -0.45600000000E+02  0.45600000000E+02  0.00000000000E+00 0. -1.
        -11    1    1    2    0    0 -0.17308060595E+01  0.32406854943E-01  0.36753182865E+02  0.36793928719E+02  0.00000000000E+00 0.  1.
         11    1    1    2    0    0 -0.58181844033E+00 -0.63463855179E+00 -0.44568486266E+02  0.44576801666E+02  0.00000000000E+00 0. -1.
        -15    1    1    2    0    0  0.13514641101E+01  0.23303710002E+01  0.50513140913E+01  0.59942128164E+01  0.17770000000E+01 0. -1.
         15    1    1    2    0    0  0.96116038964E+00 -0.17281393034E+01  0.27639893093E+01  0.38350567986E+01  0.17770000000E+01 0.  1.
</event>
<event>
 6    1  0.3691007E-002  0.4621977E+02  0.7546771E-02  0.1315096E+00
        -11   -1    0    0    0    0  0.00000000000E+00  0.00000000000E+00  0.45600000000E+02  0.45600000000E+02  0.00000000000E+00 0.  1.
         11   -1    0    0    0    0 -0.00000000000E+00 -0.00000000000E+00 -0.45600000000E+02  0.45600000000E+02  0.00000000000E+00 0.  1.
        -11    1    1    2    0    0 -0.17014491092E+00  0.60821567474E+00  0.35322694354E+02  0.35328340069E+02  0.00000000000E+00 0.  1.
         11    1    1    2    0    0  0.68915478728E+00  0.63731395839E+00 -0.44970431659E+02  0.44980227067E+02  0.00000000000E+00 0.  1.
        -15    1    1    2    0    0 -0.83126677106E+00  0.41277371931E+00  0.18876291340E+01  0.27535902628E+01  0.17770000000E+01 0. -1.
         15    1    1    2    0    0  0.31225689471E+00 -0.16583033524E+01  0.77601081710E+01  0.81378426013E+01  0.17770000000E+01 0.  1.
</event>
<event>
 6    1  0.3691007E-002  0.4376523E+02  0.7546771E-02  0.1327335E+00
        -11   -1    0    0    0    0  0.00000000000E+00  0.00000000000E+00  0.45600000000E+02  0.45600000000E+02  0.00000000000E+00 0.  1.
         11   -1    0    0    0    0 -0.00000000000E+00 -0.00000000000E+00 -0.45600000000E+02  0.45600000000E+02  0.00000000000E+00 0. -1.
        -11    1    1    2    0    0 -0.11739696965E+01 -0.16871521786E+01  0.46634938269E+01  0.50963577186E+01  0.00000000000E+00 0.  1.
         11    1    1    2    0    0  0.26504604231E-01  0.22262529853E+01 -0.44512698842E+02  0.44568343733E+02  0.00000000000E+00 0. -1.
        -15    1    1    2    0    0 -0.28048947493E+01  0.13089376781E+01  0.33171948997E+02  0.33363403329E+02  0.17770000000E+01 0.  1.
         15    1    1    2    0    0  0.39523598416E+01 -0.18480384848E+01  0.66772560181E+01  0.81718952202E+01  0.17770000000E+01 0. -1.
</event>
<event>
 6    1  0.3691007E-002  0.4893399E+02  0.7546771E-02  0.1302542E+00
        -11   -1    0    0    0    0  0.00000000000E+00  0.00000000000E+00  0.45600000000E+02  0.45600000000E+02  0.00000000000E+00 0.  1.
         11   -1    0    0    0    0 -0.00000000000E+00 -0.00000000000E+00 -0.45600000000E+02  0.45600000000E+02  0.00000000000E+00 0.  1.
        -11    1    1    2    0    0 -0.24670190303E+01  0.31000769785E+01  0.42079911160E+02  0.42266009788E+02  0.00000000000E+00 0.  1.
         11    1    1    2    0    0  0.12616602314E+01  0.19228931738E+01 -0.22600148295E+02  0.22716866150E+02  0.00000000000E+00 0.  1.
        -15    1    1    2    0    0 -0.13372785687E+01 -0.21523574355E+01  0.24102945329E+01  0.39227802941E+01  0.17770000000E+01 0. -1.
         15    1    1    2    0    0  0.25426373676E+01 -0.28706127168E+01 -0.21890057398E+02  0.22294343768E+02  0.17770000000E+01 0.  1.
</event>
<event>
 6    1  0.3691007E-002  0.4751816E+02  0.7546771E-02  0.1308970E+00
        -11   -1    0    0    0    0  0.00000000000E+00  0.00000000000E+00  0.45600000000E+02  0.45600000000E+02  0.00000000000E+00 0.  1.
         11   -1    0    0    0    0 -0.00000000000E+00 -0.00000000000E+00 -0.45600000000E+02  0.45600000000E+02  0.00000000000E+00 0.  1.
        -11    1    1    2    0    0 -0.41972160279E+00  0.48264442332E+00  0.37997511495E+02  0.38002894517E+02  0.00000000000E+00 0.  1.
         11    1    1    2    0    0  0.75285246060E+00 -0.39963612099E+00 -0.43673525959E+02  0.43681842515E+02  0.00000000000E+00 0.  1.
        -15    1    1    2    0    0 -0.21891182413E+01  0.26419747149E+01  0.32861839074E+01  0.50723764393E+01  0.17770000000E+01 0.  1.
         15    1    1    2    0    0  0.18559873835E+01 -0.27249830173E+01  0.23898305562E+01  0.44428865278E+01  0.17770000000E+01 0. -1.
</event>
<event>
 6    1  0.3691007E-002  0.4638834E+02  0.7546771E-02  0.1314288E+00
        -11   -1    0    0    0    0  0.00000000000E+00  0.00000000000E+00  0.45600000000E+02  0.45600000000E+02  0.00000000000E+00 0.  1.
         11   -1    0    0    0    0 -0.00000000000E+00 -0.00000000000E+00 -0.45600000000E+02  0.45600000000E+02  0.00000000000E+00 0. -1.
        -11    1    1    2    0    0 -0.51583840388E+00  0.23662439336E+00  0.24001037661E+02  0.24007746440E+02  0.00000000000E+00 0.  1.
         11    1    1    2    0    0  0.15028855489E+01 -0.16350708750E+00 -0.44786150704E+02  0.44811658019E+02  0.00000000000E+00 0. -1.
        -15    1    1    2    0    0 -0.38014421301E+01 -0.11022179292E+01  0.76848955674E+01  0.88250323236E+01  0.17770000000E+01 0.  1.
         15    1    1    2    0    0  0.28143949851E+01  0.10291006233E+01  0.13100217476E+02  0.13555563217E+02  0.17770000000E+01 0. -1.
</event>
<event>
 6    1  0.3797880E-002  0.4725210E+02  0.7546771E-02  0.1310207E+00
        -11   -1    0    0    0    0  0.00000000000E+00  0.00000000000E+00  0.45600000000E+02  0.45600000000E+02  0.00000000000E+00 0.  1.
         11   -1    0    0    0    0 -0.00000000000E+00 -0.00000000000E+00 -0.45600000000E+02  0.45600000000E+02  0.00000000000E+00 0.  1.
        -11    1    1    2    0    0  0.92186609351E+00 -0.58662742162E-02  0.43938226869E+02  0.43947897014E+02  0.00000000000E+00 0.  1.
         11    1    1    2    0    0 -0.42814000124E+01 -0.21437206098E+00 -0.38890757328E+02  0.39126299940E+02  0.00000000000E+00 0.  1.
        -15    1    1    2    0    0  0.39409862074E+01  0.43930782562E+00 -0.42601045356E+01  0.60852759434E+01  0.17770000000E+01 0.  1.
         15    1    1    2    0    0 -0.58145228857E+00 -0.21906949042E+00 -0.78736500612E+00  0.20405271031E+01  0.17770000000E+01 0. -1.
</event>
<event>
 6    1  0.3691007E-002  0.4993876E+02  0.7546771E-02  0.1298130E+00
        -11   -1    0    0    0    0  0.00000000000E+00  0.00000000000E+00  0.45600000000E+02  0.45600000000E+02  0.00000000000E+00 0. -1.
         11   -1    0    0    0    0 -0.00000000000E+00 -0.00000000000E+00 -0.45600000000E+02  0.45600000000E+02  0.00000000000E+00 0.  1.
        -11    1    1    2    0    0  0.59122542901E+00 -0.11184863123E+00  0.41256853479E+02  0.41261241094E+02  0.00000000000E+00 0. -1.
         11    1    1    2    0    0 -0.52980042506E+01 -0.49404587979E+00 -0.37161200571E+02  0.37540215213E+02  0.00000000000E+00 0.  1.
        -15    1    1    2    0    0 -0.22503787217E+01 -0.10477653846E+00 -0.43123458543E+01  0.51796948059E+01  0.17770000000E+01 0.  1.
         15    1    1    2    0    0  0.69571575433E+01  0.71067104948E+00  0.21669294646E+00  0.72188488872E+01  0.17770000000E+01 0. -1.
</event>
<event>
 6    1  0.3691007E-002  0.4631878E+02  0.7546771E-02  0.1314621E+00
        -11   -1    0    0    0    0  0.00000000000E+00  0.00000000000E+00  0.45600000000E+02  0.45600000000E+02  0.00000000000E+00 0. -1.
         11   -1    0    0    0    0 -0.00000000000E+00 -0.00000000000E+00 -0.45600000000E+02  0.45600000000E+02  0.00000000000E+00 0. -1.
        -11    1    1    2    0    0 -0.13715982220E+01  0.20613580693E+00  0.31256957643E+02  0.31287716036E+02  0.00000000000E+00 0. -1.
         11    1    1    2    0    0 -0.12609618583E+01  0.91347567144E+00 -0.44854198873E+02  0.44881216775E+02  0.00000000000E+00 0. -1.
        -15    1    1    2    0    0  0.97017365384E+00  0.32542100821E+00  0.11001108952E+02  0.11190588141E+02  0.17770000000E+01 0. -1.
         15    1    1    2    0    0  0.16623864264E+01 -0.14450324866E+01  0.25961322780E+01  0.38404790486E+01  0.17770000000E+01 0. -1.
</event>
<event>
 6    1  0.3691007E-002  0.4701426E+02  0.7546771E-02  0.1311321E+00
        -11   -1    0    0    0    0  0.00000000000E+00  0.00000000000E+00  0.45600000000E+02  0.45600000000E+02  0.00000000000E+00 0.  1.
         11   -1    0    0    0    0 -0.00000000000E+00 -0.00000000000E+00 -0.45600000000E+02  0.45600000000E+02  0.00000000000E+00 0.  1.
        -11    1    1    2    0    0 -0.11892398152E+00  0.73336555657E+00  0.41556957444E+02  0.41563598015E+02  0.00000000000E+00 0.  1.
         11    1    1    2    0    0  0.31211846024E+01 -0.57365769226E+00 -0.44071632138E+02  0.44185740186E+02  0.00000000000E+00 0.  1.
        -15    1    1    2    0    0 -0.20888744984E+01 -0.55729184209E+00  0.14290697414E+01  0.31422826405E+01  0.17770000000E+01 0.  1.
         15    1    1    2    0    0 -0.91338612247E+00  0.39758397777E+00  0.10856049523E+01  0.23083791587E+01  0.17770000000E+01 0. -1.
</event>
<event>
 6    1  0.3691007E-002  0.4694389E+02  0.7546771E-02  0.1311652E+00
        -11   -1    0    0    0    0  0.00000000000E+00  0.00000000000E+00  0.45600000000E+02  0.45600000000E+02  0.00000000000E+00 0.  1.
         11   -1    0    0    0    0 -0.00000000000E+00 -0.00000000000E+00 -0.45600000000E+02  0.45600000000E+02  0.00000000000E+00 0.  1.
        -11    1    1    2    0    0 -0.21245125210E+01 -0.15086072338E+01  0.18599022951E+02  0.18780657709E+02  0.00000000000E+00 0.  1.
         11    1    1    2    0    0  0.11247741763E+01  0.12688867695E+00 -0.44241636033E+02  0.44256113437E+02  0.00000000000E+00 0.  1.
        -15    1    1    2    0    0  0.54426626868E+01 -0.16310320871E+01  0.12012557788E+02  0.13406793666E+02  0.17770000000E+01 0.  1.
         15    1    1    2    0    0 -0.44429243421E+01  0.30127506439E+01  0.13630055294E+02  0.14756435188E+02  0.17770000000E+01 0. -1.
</event>
<event>
 6    1  0.3691007E-002  0.4929015E+02  0.7546771E-02  0.1300964E+00
        -11   -1    0    0    0    0  0.00000000000E+00  0.00000000000E+00  0.45600000000E+02  0.45600000000E+02  0.00000000000E+00 0. -1.
         11   -1    0    0    0    0 -0.00000000000E+00 -0.00000000000E+00 -0.45600000000E+02  0.45600000000E+02  0.00000000000E+00 0. -1.
        -11    1    1    2    0    0 -0.39866841543E+01 -0.93245680375E+00  0.41709382909E+02  0.41909852647E+02  0.00000000000E+00 0. -1.
         11    1    1    2    0    0 -0.38696547929E+01 -0.17613842068E+01 -0.34435941062E+02  0.34697416898E+02  0.00000000000E+00 0. -1.
        -15    1    1    2    0    0  0.78999761712E+00  0.76776173627E+00 -0.67178229981E+01  0.70356541383E+01  0.17770000000E+01 0.  1.
         15    1    1    2    0    0  0.70663413301E+01  0.19260792743E+01 -0.55561884853E+00  0.75570763175E+01  0.17770000000E+01 0. -1.
</event>
<event>
 6    1  0.3834170E-002  0.5044934E+02  0.7546771E-02  0.1295933E+00
        -11   -1    0    0    0    0  0.00000000000E+00  0.00000000000E+00  0.45600000000E+02  0.45600000000E+02  0.00000000000E+00 0. -1.
         11   -1    0    0    0    0 -0.00000000000E+00 -0.00000000000E+00 -0.45600000000E+02  0.45600000000E+02  0.00000000000E+00 0.  1.
        -11    1    1    2    0    0  0.83295482344E+00 -0.37241831587E+01  0.30054019284E+02  0.30295336754E+02  0.00000000000E+00 0. -1.
         11    1    1    2    0    0 -0.80692991409E+00 -0.10114554259E+00 -0.40742549087E+02  0.40750664687E+02  0.00000000000E+00 0.  1.
        -15    1    1    2    0    0 -0.13751692636E+01  0.34151117274E+01  0.14856493207E+02  0.15408672818E+02  0.17770000000E+01 0. -1.
         15    1    1    2    0    0  0.13491443542E+01  0.41021697395E+00 -0.41679634034E+01  0.47453257408E+01  0.17770000000E+01 0.  1.
</event>
<event>
 6    1  0.3691007E-002  0.4652485E+02  0.7546771E-02  0.1313636E+00
        -11   -1    0    0    0    0  0.00000000000E+00  0.00000000000E+00  0.45600000000E+02  0.45600000000E+02  0.00000000000E+00 0.  1.
         11   -1    0    0    0    0 -0.00000000000E+00 -0.00000000000E+00 -0.45600000000E+02  0.45600000000E+02  0.00000000000E+00 0. -1.
        -11    1    1    2    0    0 -0.55097606562E+00  0.33638129336E+00  0.44670487789E+02  0.44675152001E+02  0.00000000000E+00 0.  1.
         11    1    1    2    0    0 -0.50162863616E+00 -0.25995948481E+01 -0.30271795441E+02  0.30387351380E+02  0.00000000000E+00 0. -1.
        -15    1    1    2    0    0 -0.20913731700E+01  0.22141441445E+01 -0.87386784208E+01  0.94232958975E+01  0.17770000000E+01 0.  1.
         15    1    1    2    0    0  0.31439778718E+01  0.49069410210E-01 -0.56600139277E+01  0.67142007213E+01  0.17770000000E+01 0.  1.
</event>
<event>
 6    1  0.3691007E-002  0.4616164E+02  0.7546771E-02  0.1315376E+00
        -11   -1    0    0    0    0  0.00000000000E+00  0.00000000000E+00  0.45600000000E+02  0.45600000000E+02  0.00000000000E+00 0.  1.
         11   -1    0    0    0    0 -0.00000000000E+00 -0.00000000000E+00 -0.45600000000E+02  0.45600000000E+02  0.00000000000E+00 0.  1.
        -11    1    1    2    0    0  0.41087019218E+00  0.96435035014E+00  0.45026157659E+02  0.45038357645E+02  0.00000000000E+00 0.  1.
         11    1    1    2    0    0 -0.67717317908E-02  0.57878899767E+00 -0.28754387492E+02  0.28760212840E+02  0.00000000000E+00 0.  1.
        -15    1    1    2    0    0 -0.10294494073E+01 -0.27516010739E+01 -0.62322156729E+01  0.71154280086E+01  0.17770000000E+01 0.  1.
         15    1    1    2    0    0  0.62535094689E+00  0.12084617261E+01 -0.10039554494E+02  0.10286001506E+02  0.17770000000E+01 0.  1.
</event>
<event>
 6    1  0.3691007E-002  0.3352238E+02  0.7546771E-02  0.1390662E+00
        -11   -1    0    0    0    0  0.00000000000E+00  0.00000000000E+00  0.45600000000E+02  0.45600000000E+02  0.00000000000E+00 0. -1.
         11   -1    0    0    0    0 -0.00000000000E+00 -0.00000000000E+00 -0.45600000000E+02  0.45600000000E+02  0.00000000000E+00 0. -1.
        -11    1    1    2    0    0  0.51797896513E+01 -0.66576563845E+01  0.25593776552E+02  0.26948024186E+02  0.00000000000E+00 0. -1.
         11    1    1    2    0    0  0.47397181651E+01  0.21662799002E+01 -0.36550026966E+02  0.36919671831E+02  0.00000000000E+00 0. -1.
        -15    1    1    2    0    0 -0.46964986044E+01  0.65011839611E+01  0.17015601390E+02  0.18894732379E+02  0.17770000000E+01 0. -1.
         15    1    1    2    0    0 -0.52230092120E+01 -0.20098074768E+01 -0.60593509756E+01  0.84375716037E+01  0.17770000000E+01 0.  1.
</event>
<event>
 6    1  0.3691007E-002  0.4598645E+02  0.7546771E-02  0.1316221E+00
        -11   -1    0    0    0    0  0.00000000000E+00  0.00000000000E+00  0.45600000000E+02  0.45600000000E+02  0.00000000000E+00 0.  1.
         11   -1    0    0    0    0 -0.00000000000E+00 -0.00000000000E+00 -0.45600000000E+02  0.45600000000E+02  0.00000000000E+00 0.  1.
        -11    1    1    2    0    0 -0.13627640232E+01  0.41695324389E-01  0.45192984261E+02  0.45213545433E+02  0.00000000000E+00 0.  1.
         11    1    1    2    0    0 -0.71748767586E-01 -0.65812453817E+00 -0.32739657992E+02  0.32746350655E+02  0.00000000000E+00 0.  1.
        -15    1    1    2    0    0  0.94882903073E+00  0.13306167699E+01 -0.82424218821E+01  0.85887173082E+01  0.17770000000E+01 0.  1.
         15    1    1    2    0    0  0.48568376002E+00 -0.71418755607E+00 -0.42109043869E+01  0.46513866035E+01  0.17770000000E+01 0. -1.
</event>
<event>
 6    1  0.3691007E-002  0.3684143E+02  0.7546771E-02  0.1367541E+00
        -11   -1    0    0    0    0  0.00000000000E+00  0.00000000000E+00  0.45600000000E+02  0.45600000000E+02  0.00000000000E+00 0. -1.
         11   -1    0    0    0    0 -0.00000000000E+00 -0.00000000000E+00 -0.45600000000E+02  0.45600000000E+02  0.00000000000E+00 0.  1.
        -11    1    1    2    0    0 -0.10307014575E+01 -0.24446386357E+01  0.38172059095E+02  0.38264143779E+02  0.00000000000E+00 0. -1.
         11    1    1    2    0    0  0.20819903487E+00 -0.57290211471E+00 -0.74434077085E+01  0.74683252464E+01  0.00000000000E+00 0.  1.
        -15    1    1    2    0    0  0.71224731534E+01  0.41699140402E+01  0.45347095673E+01  0.95832732813E+01  0.17770000000E+01 0. -1.
         15    1    1    2    0    0 -0.62999707308E+01 -0.11523732898E+01 -0.35263360954E+02  0.35884257693E+02  0.17770000000E+01 0.  1.
</event>
<event>
 6    1  0.3691007E-002  0.4941103E+02  0.7546771E-02  0.1300432E+00
        -11   -1    0    0    0    0  0.00000000000E+00  0.00000000000E+00  0.45600000000E+02  0.45600000000E+02  0.00000000000E+00 0. -1.
         11   -1    0    0    0    0 -0.00000000000E+00 -0.00000000000E+00 -0.45600000000E+02  0.45600000000E+02  0.00000000000E+00 0.  1.
        -11    1    1    2    0    0  0.99788747265E+00 -0.42266645345E+00  0.41774912917E+02  0.41788967151E+02  0.00000000000E+00 0. -1.
         11    1    1    2    0    0 -0.25289530993E+01 -0.28650107985E+01 -0.37600397080E+02  0.37794096778E+02  0.00000000000E+00 0.  1.
        -15    1    1    2    0    0  0.21653849360E+01  0.50711132688E+01 -0.60786860257E+01  0.83972158781E+01  0.17770000000E+01 0.  1.
         15    1    1    2    0    0 -0.63431930928E+00 -0.17834360169E+01  0.19041701890E+01  0.32197201929E+01  0.17770000000E+01 0. -1.
</event>
<event>
 6    1  0.3691007E-002  0.4753994E+02  0.7546771E-02  0.1308870E+00
        -11   -1    0    0    0    0  0.00000000000E+00  0.00000000000E+00  0.45600000000E+02  0.45600000000E+02  0.00000000000E+00 0. -1.
         11   -1    0    0    0    0 -0.00000000000E+00 -0.00000000000E+00 -0.45600000000E+02  0.45600000000E+02  0.00000000000E+00 0. -1.
        -11    1    1    2    0    0 -0.75428710908E+00  0.69314309763E+00  0.43648035951E+02  0.43660055414E+02  0.00000000000E+00 0. -1.
         11    1    1    2    0    0 -0.34889506190E+01  0.17219600451E-01 -0.39249064756E+02  0.39403834295E+02  0.00000000000E+00 0. -1.
        -15    1    1    2    0    0  0.31800040709E+01  0.10202033637E+01 -0.38196106452E+01  0.53759087860E+01  0.17770000000E+01 0.  1.
         15    1    1    2    0    0  0.10632336572E+01 -0.17305660618E+01 -0.57936054973E+00  0.27602015054E+01  0.17770000000E+01 0.  1.
</event>
<event>
 6    1  0.3691007E-002  0.4672048E+02  0.7546771E-02  0.1312707E+00
        -11   -1    0    0    0    0  0.00000000000E+00  0.00000000000E+00  0.45600000000E+02  0.45600000000E+02  0.00000000000E+00 0. -1.
         11   -1    0    0    0    0 -0.00000000000E+00 -0.00000000000E+00 -0.45600000000E+02  0.45600000000E+02  0.00000000000E+00 0. -1.
        -11    1    1    2    0    0  0.24909391969E+01  0.57306774765E+00  0.34766006993E+02  0.34859839743E+02  0.00000000000E+00 0. -1.
         11    1    1    2    0    0  0.62847388110E+00  0.16120251273E+00 -0.44474787541E+02  0.44479519922E+02  0.00000000000E+00 0. -1.
        -15    1    1    2    0    0 -0.20981186587E+01  0.87183363215E+00  0.85259828981E+01  0.90006838166E+01  0.17770000000E+01 0. -1.
         15    1    1    2    0    0 -0.10212944193E+01 -0.16061038925E+01  0.11827976502E+01  0.28599565182E+01  0.17770000000E+01 0.  1.
</event>
<event>
 6    1  0.3691007E-002  0.4670757E+02  0.7546771E-02  0.1312768E+00
        -11   -1    0    0    0    0  0.00000000000E+00  0.00000000000E+00  0.45600000000E+02  0.45600000000E+02  0.00000000000E+00 0.  1.
         11   -1    0    0    0    0 -0.00000000000E+00 -0.00000000000E+00 -0.45600000000E+02  0.45600000000E+02  0.00000000000E+00 0.  1.
        -11    1    1    2    0    0  0.40361659421E+00  0.10895468060E+01  0.44477254391E+02  0.44492428308E+02  0.00000000000E+00 0.  1.
         11    1    1    2    0    0  0.10723454678E+01 -0.52742995663E+00 -0.40774282646E+02  0.40791791239E+02  0.00000000000E+00 0.  1.
        -15    1    1    2    0    0 -0.69458304854E+00  0.64650589787E+00 -0.68170413401E+00  0.21267028503E+01  0.17770000000E+01 0. -1.
         15    1    1    2    0    0 -0.78137901352E+00 -0.12086227473E+01 -0.30212676103E+01  0.37890776029E+01  0.17770000000E+01 0.  1.
</event>
<event>
 6    1  0.3691007E-002  0.4624505E+02  0.7546771E-02  0.1314975E+00
        -11   -1    0    0    0    0  0.00000000000E+00  0.00000000000E+00  0.45600000000E+02  0.45600000000E+02  0.00000000000E+00 0. -1.
         11   -1    0    0    0    0 -0.00000000000E+00 -0.00000000000E+00 -0.45600000000E+02  0.45600000000E+02  0.00000000000E+00 0.  1.
        -11    1    1    2    0    0  0.33494247102E+00 -0.44804796542E+00  0.36675731878E+02  0.36679997849E+02  0.00000000000E+00 0. -1.
         11    1    1    2    0    0 -0.30151873731E+00  0.72108594909E+00 -0.44948152545E+02  0.44954947400E+02  0.00000000000E+00 0.  1.
        -15    1    1    2    0    0  0.66111721296E+00 -0.67112852711E+00  0.14761463249E+01  0.24948399632E+01  0.17770000000E+01 0. -1.
         15    1    1    2    0    0 -0.69454094667E+00  0.39809054344E+00  0.67962743425E+01  0.70702147878E+01  0.17770000000E+01 0. -1.
</event>
<event>
 6    1  0.3691007E-002  0.4691769E+02  0.7546771E-02  0.1311775E+00
        -11   -1    0    0    0    0  0.00000000000E+00  0.00000000000E+00  0.45600000000E+02  0.45600000000E+02  0.00000000000E+00 0.  1.
         11   -1    0    0    0    0 -0.00000000000E+00 -0.00000000000E+00 -0.45600000000E+02  0.45600000000E+02  0.00000000000E+00 0. -1.
        -11    1    1    2    0    0 -0.17058464457E+01  0.25110847317E+01  0.44178135689E+02  0.44282311723E+02  0.00000000000E+00 0.  1.
         11    1    1    2    0    0  0.94731531559E+00  0.10416834904E+00 -0.30024283729E+02  0.30039405300E+02  0.00000000000E+00 0. -1.
        -15    1    1    2    0    0  0.23963350610E+01 -0.21676371441E+01 -0.13930595136E+02  0.14410422699E+02  0.17770000000E+01 0. -1.
         15    1    1    2    0    0 -0.16378039309E+01 -0.44761593666E+00 -0.22325682429E+00  0.24678602781E+01  0.17770000000E+01 0.  1.
</event>
<event>
 6    1  0.3691007E-002  0.4795520E+02  0.7546771E-02  0.1306959E+00
        -11   -1    0    0    0    0  0.00000000000E+00  0.00000000000E+00  0.45600000000E+02  0.45600000000E+02  0.00000000000E+00 0.  1.
         11   -1    0    0    0    0 -0.00000000000E+00 -0.00000000000E+00 -0.45600000000E+02  0.45600000000E+02  0.00000000000E+00 0.  1.
        -11    1    1    2    0    0  0.60165336873E+00 -0.13424347305E+01  0.43219776015E+02  0.43244804966E+02  0.00000000000E+00 0.  1.
         11    1    1    2    0    0  0.44099910503E+01 -0.11582018186E+01 -0.12317701690E+02  0.13134505223E+02  0.00000000000E+00 0.  1.
        -15    1    1    2    0    0 -0.51784107203E+01  0.19523801024E+01 -0.32087065259E+02  0.32609281065E+02  0.17770000000E+01 0.  1.
         15    1    1    2    0    0  0.16676630128E+00  0.54825644673E+00  0.11849909342E+01  0.22114087466E+01  0.17770000000E+01 0.  1.
</event>
<event>
 6    1  0.3691007E-002  0.4661176E+02  0.7546771E-02  0.1313222E+00
        -11   -1    0    0    0    0  0.00000000000E+00  0.00000000000E+00  0.45600000000E+02  0.45600000000E+02  0.00000000000E+00 0.  1.
         11   -1    0    0    0    0 -0.00000000000E+00 -0.00000000000E+00 -0.45600000000E+02  0.45600000000E+02  0.00000000000E+00 0.  1.
        -11    1    1    2    0    0  0.11094998068E+01 -0.82739078830E+00  0.27967140928E+02  0.28001366699E+02  0.00000000000E+00 0.  1.
         11    1    1    2    0    0  0.38206103713E+01 -0.58796150750E+00 -0.44420359154E+02  0.44588239141E+02  0.00000000000E+00 0.  1.
        -15    1    1    2    0    0  0.96226534006E+00 -0.53242054033E-01  0.20519667178E+01  0.28804662317E+01  0.17770000000E+01 0.  1.
         15    1    1    2    0    0 -0.58923755182E+01  0.14685943498E+01  0.14401251509E+02  0.15729927928E+02  0.17770000000E+01 0.  1.
</event>
<event>
 6    1  0.3691007E-002  0.4876788E+02  0.7546771E-02  0.1303283E+00
        -11   -1    0    0    0    0  0.00000000000E+00  0.00000000000E+00  0.45600000000E+02  0.45600000000E+02  0.00000000000E+00 0. -1.
         11   -1    0    0    0    0 -0.00000000000E+00 -0.00000000000E+00 -0.45600000000E+02  0.45600000000E+02  0.00000000000E+00 0. -1.
        -11    1    1    2    0    0  0.44788382287E+00  0.54207502547E+00  0.42426296557E+02  0.42432123265E+02  0.00000000000E+00 0. -1.
         11    1    1    2    0    0 -0.16016482204E+01 -0.16623654569E+01 -0.40776836447E+02  0.40842124412E+02  0.00000000000E+00 0. -1.
        -15    1    1    2    0    0  0.25019934039E+01  0.84798034047E+00 -0.37016715299E+01  0.48825344613E+01  0.17770000000E+01 0.  1.
         15    1    1    2    0    0 -0.13482290063E+01  0.27231009092E+00  0.20522114194E+01  0.30432178609E+01  0.17770000000E+01 0. -1.
</event>
<event>
 6    1  0.3691007E-002  0.4599195E+02  0.7546771E-02  0.1316195E+00
        -11   -1    0    0    0    0  0.00000000000E+00  0.00000000000E+00  0.45600000000E+02  0.45600000000E+02  0.00000000000E+00 0. -1.
         11   -1    0    0    0    0 -0.00000000000E+00 -0.00000000000E+00 -0.45600000000E+02  0.45600000000E+02  0.00000000000E+00 0.  1.
        -11    1    1    2    0    0 -0.47781901921E+00 -0.13092765189E+01  0.28033339105E+02  0.28067964254E+02  0.00000000000E+00 0. -1.
         11    1    1    2    0    0 -0.31145036811E+01  0.20655745494E+01 -0.45053309094E+02  0.45208045653E+02  0.00000000000E+00 0.  1.
        -15    1    1    2    0    0  0.23341024699E+01 -0.13588775576E+01  0.11825959250E+02  0.12259919402E+02  0.17770000000E+01 0.  1.
         15    1    1    2    0    0  0.12582202304E+01  0.60257952706E+00  0.51940107393E+01  0.56640706912E+01  0.17770000000E+01 0. -1.
</event>
<event>
 6    1  0.3691007E-002  0.4659922E+02  0.7546771E-02  0.1313282E+00
        -11   -1    0    0    0    0  0.00000000000E+00  0.00000000000E+00  0.45600000000E+02  0.45600000000E+02  0.00000000000E+00 0. -1.
         11   -1    0    0    0    0 -0.00000000000E+00 -0.00000000000E+00 -0.45600000000E+02  0.45600000000E+02  0.00000000000E+00 0. -1.
        -11    1    1    2    0    0  0.64407667756E+00 -0.39285896663E+00  0.44594395196E+02  0.44600776404E+02  0.00000000000E+00 0. -1.
         11    1    1    2    0    0  0.61619654265E+00  0.66203934500E+00 -0.40956939366E+02  0.40966924177E+02  0.00000000000E+00 0. -1.
        -15    1    1    2    0    0 -0.12080825323E+01  0.70296150578E+00 -0.16978011613E+01  0.28273443488E+01  0.17770000000E+01 0.  1.
         15    1    1    2    0    0 -0.52190687919E-01 -0.97214188415E+00 -0.19396546688E+01  0.28049550701E+01  0.17770000000E+01 0. -1.
</event>
<event>
 6    1  0.7028537E-002  0.4540744E+02  0.7546771E-02  0.1319048E+00
        -11   -1    0    0    0    0  0.00000000000E+00  0.00000000000E+00  0.45600000000E+02  0.45600000000E+02  0.00000000000E+00 0. -1.
         11   -1    0    0    0    0 -0.00000000000E+00 -0.00000000000E+00 -0.45600000000E+02  0.45600000000E+02  0.00000000000E+00 0. -1.
        -11    1    1    2    0    0 -0.14290283988E+01 -0.10944966341E+01  0.45225675034E+02  0.45261481718E+02  0.00000000000E+00 0. -1.
         11    1    1    2    0    0  0.30013724377E+00  0.53884697362E+00 -0.26825767858E+00  0.67260732095E+00  0.00000000000E+00 0. -1.
        -15    1    1    2    0    0  0.13752588993E+01 -0.13792566851E+01 -0.22799915610E+02  0.22951853234E+02  0.17770000000E+01 0. -1.
         15    1    1    2    0    0 -0.24636774425E+00  0.19349063456E+01 -0.22157501745E+02  0.22314057726E+02  0.17770000000E+01 0. -1.
</event>
<event>
 6    1  0.3691007E-002  0.4593268E+02  0.7546771E-02  0.1316482E+00
        -11   -1    0    0    0    0  0.00000000000E+00  0.00000000000E+00  0.45600000000E+02  0.45600000000E+02  0.00000000000E+00 0.  1.
         11   -1    0    0    0    0 -0.00000000000E+00 -0.00000000000E+00 -0.45600000000E+02  0.45600000000E+02  0.00000000000E+00 0.  1.
        -11    1    1    2    0    0  0.66948791649E-01 -0.67441423283E+00  0.26098496366E+02  0.26107294560E+02  0.00000000000E+00 0.  1.
         11    1    1    2    0    0 -0.25242768021E+00  0.14730464341E+01 -0.45242644380E+02  0.45267322166E+02  0.00000000000E+00 0.  1.
        -15    1    1    2    0    0  0.65736375040E+00 -0.19590465163E+01  0.74961525789E+01  0.79762160728E+01  0.17770000000E+01 0. -1.
         15    1    1    2    0    0 -0.47188486184E+00  0.11604143151E+01  0.11647995435E+02  0.11849167201E+02  0.17770000000E+01 0. -1.
</event>
<event>
 6    1  0.3691007E-002  0.4612793E+02  0.7546771E-02  0.1315538E+00
        -11   -1    0    0    0    0  0.00000000000E+00  0.00000000000E+00  0.45600000000E+02  0.45600000000E+02  0.00000000000E+00 0.  1.
         11   -1    0    0    0    0 -0.00000000000E+00 -0.00000000000E+00 -0.45600000000E+02  0.45600000000E+02  0.00000000000E+00 0. -1.
        -11    1    1    2    0    0  0.25282394006E+01 -0.20779680903E+00  0.32531565071E+02  0.32630321788E+02  0.00000000000E+00 0.  1.
         11    1    1    2    0    0 -0.12457252217E+01 -0.31055840506E+00 -0.45053784350E+02  0.45072072973E+02  0.00000000000E+00 0. -1.
        -15    1    1    2    0    0  0.94492825347E+00  0.79195983636E+00  0.49243301169E+01  0.53783683294E+01  0.17770000000E+01 0.  1.
         15    1    1    2    0    0 -0.22274424324E+01 -0.27360462226E+00  0.75978891620E+01  0.81192369097E+01  0.17770000000E+01 0. -1.
</event>
<event>
 6    1  0.3691007E-002  0.4736269E+02  0.7546771E-02  0.1309692E+00
        -11   -1    0    0    0    0  0.00000000000E+00  0.00000000000E+00  0.45600000000E+02  0.45600000000E+02  0.00000000000E+00 0.  1.
         11   -1    0    0    0    0 -0.00000000000E+00 -0.00000000000E+00 -0.45600000000E+02  0.45600000000E+02  0.00000000000E+00 0.  1.
        -11    1    1    2    0    0 -0.66841978608E+00  0.47512363583E+00  0.43829642271E+02  0.43837313662E+02  0.00000000000E+00 0.  1.
         11    1    1    2    0    0  0.56065264301E-01  0.10087265742E+01 -0.39120931594E+02  0.39133974516E+02  0.00000000000E+00 0.  1.
        -15    1    1    2    0    0 -0.22425446779E+01  0.40373426452E+00 -0.21260059365E+01  0.35874278014E+01  0.17770000000E+01 0.  1.
         15    1    1    2    0    0  0.28548991997E+01 -0.18875844745E+01 -0.25827047399E+01  0.46412840209E+01  0.17770000000E+01 0.  1.
</event>
<event>
 6    1  0.3691007E-002  0.4674270E+02  0.7546771E-02  0.1312601E+00
        -11   -1    0    0    0    0  0.00000000000E+00  0.00000000000E+00  0.45600000000E+02  0.45600000000E+02  0.00000000000E+00 0. -1.
         11   -1    0    0    0    0 -0.00000000000E+00 -0.00000000000E+00 -0.45600000000E+02  0.45600000000E+02  0.00000000000E+00 0. -1.
        -11    1    1    2    0    0  0.91931011383E-01  0.72368366424E+00  0.26206199610E+02  0.26216351145E+02  0.00000000000E+00 0. -1.
         11    1    1    2    0    0  0.17419848679E+01  0.65484669498E+00 -0.44418329829E+02  0.44457298166E+02  0.00000000000E+00 0. -1.
        -15    1    1    2    0    0 -0.64745348229E+00 -0.48342251564E+01  0.12322707712E+02  0.13371454043E+02  0.17770000000E+01 0. -1.
         15    1    1    2    0    0 -0.11864623970E+01  0.34556947972E+01  0.58894225067E+01  0.71548966459E+01  0.17770000000E+01 0. -1.
</event>
<event>
 6    1  0.3691007E-002  0.4611535E+02  0.7546771E-02  0.1315599E+00
        -11   -1    0    0    0    0  0.00000000000E+00  0.00000000000E+00  0.45600000000E+02  0.45600000000E+02  0.00000000000E+00 0. -1.
         11   -1    0    0    0    0 -0.00000000000E+00 -0.00000000000E+00 -0.45600000000E+02  0.45600000000E+02  0.00000000000E+00 0.  1.
        -11    1    1    2    0    0  0.15428377939E+01  0.72880347660E-01  0.27481066701E+02  0.27524437997E+02  0.00000000000E+00 0. -1.
         11    1    1    2    0    0 -0.19812734662E+01  0.36866531489E+01 -0.44889962731E+02  0.45084649383E+02  0.00000000000E+00 0.  1.
        -15    1    1    2    0    0 -0.15191545733E+01 -0.94550081103E+00  0.50794498718E+01  0.56710089404E+01  0.17770000000E+01 0.  1.
         15    1    1    2    0    0  0.19575902456E+01 -0.28140326855E+01  0.12329446158E+02  0.12919903680E+02  0.17770000000E+01 0. -1.
</event>
<event>
 6    1  0.3691007E-002  0.4684770E+02  0.7546771E-02  0.1312105E+00
        -11   -1    0    0    0    0  0.00000000000E+00  0.00000000000E+00  0.45600000000E+02  0.45600000000E+02  0.00000000000E+00 0. -1.
         11   -1    0    0    0    0 -0.00000000000E+00 -0.00000000000E+00 -0.45600000000E+02  0.45600000000E+02  0.00000000000E+00 0.  1.
        -11    1    1    2    0    0  0.21947413448E-01 -0.10898702726E+01  0.44338903803E+02  0.44352301963E+02  0.00000000000E+00 0. -1.
         11    1    1    2    0    0  0.36592195942E+00 -0.55645414436E+00 -0.40044799366E+02  0.40050337032E+02  0.00000000000E+00 0.  1.
        -15    1    1    2    0    0  0.69201380621E+00  0.21456388394E+01 -0.34750680517E+01  0.45073801815E+01  0.17770000000E+01 0.  1.
         15    1    1    2    0    0 -0.10798831791E+01 -0.49931442248E+00 -0.81903638564E+00  0.22899808239E+01  0.17770000000E+01 0.  1.
</event>
<event>
 6    1  0.3691007E-002  0.5498171E+02  0.7546771E-02  0.1277654E+00
        -11   -1    0    0    0    0  0.00000000000E+00  0.00000000000E+00  0.45600000000E+02  0.45600000000E+02  0.00000000000E+00 0.  1.
         11   -1    0    0    0    0 -0.00000000000E+00 -0.00000000000E+00 -0.45600000000E+02  0.45600000000E+02  0.00000000000E+00 0.  1.
        -11    1    1    2    0    0 -0.10526689016E+01 -0.21271525611E+01  0.33076810767E+02  0.33161850074E+02  0.00000000000E+00 0.  1.
         11    1    1    2    0    0 -0.59669479820E+00 -0.51707016874E+00 -0.36209686369E+02  0.36218293626E+02  0.00000000000E+00 0.  1.
        -15    1    1    2    0    0 -0.28369315019E+01  0.15045143231E+01  0.11512446672E+02  0.12083290159E+02  0.17770000000E+01 0.  1.
         15    1    1    2    0    0  0.44862952016E+01  0.11397084068E+01 -0.83795710701E+01  0.97365661405E+01  0.17770000000E+01 0. -1.
</event>
<event>
 6    1  0.3691007E-002  0.4651184E+02  0.7546771E-02  0.1313698E+00
        -11   -1    0    0    0    0  0.00000000000E+00  0.00000000000E+00  0.45600000000E+02  0.45600000000E+02  0.00000000000E+00 0.  1.
         11   -1    0    0    0    0 -0.00000000000E+00 -0.00000000000E+00 -0.45600000000E+02  0.45600000000E+02  0.00000000000E+00 0.  1.
        -11    1    1    2    0    0 -0.98383441057E+00 -0.39228064339E+00  0.40024046559E+02  0.40038058360E+02  0.00000000000E+00 0.  1.
         11    1    1    2    0    0  0.14346524176E+01 -0.12588563441E+01 -0.44647386615E+02  0.44688164858E+02  0.00000000000E+00 0.  1.
        -15    1    1    2    0    0 -0.10286747007E+01  0.28620222898E-01  0.22203408335E+01  0.30243401221E+01  0.17770000000E+01 0.  1.
         15    1    1    2    0    0  0.57785669373E+00  0.16225167646E+01  0.24029992219E+01  0.34494366599E+01  0.17770000000E+01 0. -1.
</event>
<event>
 6    1  0.3691007E-002  0.4925149E+02  0.7546771E-02  0.1301135E+00
        -11   -1    0    0    0    0  0.00000000000E+00  0.00000000000E+00  0.45600000000E+02  0.45600000000E+02  0.00000000000E+00 0.  1.
         11   -1    0    0    0    0 -0.00000000000E+00 -0.00000000000E+00 -0.45600000000E+02  0.45600000000E+02  0.00000000000E+00 0. -1.
        -11    1    1    2    0    0 -0.18948217866E+01 -0.29174646826E+01  0.41804008464E+02  0.41948505020E+02  0.00000000000E+00 0.  1.
         11    1    1    2    0    0  0.22092742583E+00 -0.78498952578E+00 -0.26561045475E+02  0.26573561188E+02  0.00000000000E+00 0. -1.
        -15    1    1    2    0    0 -0.46291641547E+00  0.27522683479E+01 -0.18206984397E+02  0.18505169075E+02  0.17770000000E+01 0. -1.
         15    1    1    2    0    0  0.21368107762E+01  0.95018586051E+00  0.29640214089E+01  0.41727647160E+01  0.17770000000E+01 0.  1.
</event>
<event>
 6    1  0.3691007E-002  0.4956383E+02  0.7546771E-02  0.1299762E+00
        -11   -1    0    0    0    0  0.00000000000E+00  0.00000000000E+00  0.45600000000E+02  0.45600000000E+02  0.00000000000E+00 0. -1.
         11   -1    0    0    0    0 -0.00000000000E+00 -0.00000000000E+00 -0.45600000000E+02  0.45600000000E+02  0.00000000000E+00 0. -1.
        -11    1    1    2    0    0 -0.54731346253E+01 -0.20006121876E+01  0.41226358372E+02  0.41636165486E+02  0.00000000000E+00 0. -1.
         11    1    1    2    0    0  0.26113467930E+00  0.13272962213E+01 -0.28183466659E+02  0.28215912168E+02  0.00000000000E+00 0. -1.
        -15    1    1    2    0    0 -0.31081434248E+01  0.85810377366E+00  0.19066080313E+01  0.41460560561E+01  0.17770000000E+01 0. -1.
         15    1    1    2    0    0  0.83201433707E+01 -0.18478780738E+00 -0.14949499744E+02  0.17201866290E+02  0.17770000000E+01 0.  1.
</event>
<event>
 6    1  0.3691007E-002  0.4730593E+02  0.7546771E-02  0.1309956E+00
        -11   -1    0    0    0    0  0.00000000000E+00  0.00000000000E+00  0.45600000000E+02  0.45600000000E+02  0.00000000000E+00 0. -1.
         11   -1    0    0    0    0 -0.00000000000E+00 -0.00000000000E+00 -0.45600000000E+02  0.45600000000E+02  0.00000000000E+00 0.  1.
        -11    1    1    2    0    0  0.95473265585E+00  0.82977045618E+00  0.38600327872E+02  0.38621047957E+02  0.00000000000E+00 0. -1.
         11    1    1    2    0    0 -0.13417910622E+01  0.13594447166E+00 -0.43873346806E+02  0.43894070717E+02  0.00000000000E+00 0.  1.
        -15    1    1    2    0    0  0.15495258367E+01  0.23758303357E+00  0.57310117536E+01  0.62015885655E+01  0.17770000000E+01 0. -1.
         15    1    1    2    0    0 -0.11624674304E+01 -0.12032979614E+01 -0.45799281916E+00  0.24832927602E+01  0.17770000000E+01 0.  1.
</event>
<event>
 6    1  0.3691007E-002  0.4650065E+02  0.7546771E-02  0.1313751E+00
        -11   -1    0    0    0    0  0.00000000000E+00  0.00000000000E+00  0.45600000000E+02  0.45600000000E+02  0.00000000000E+00 0. -1.
         11   -1    0    0    0    0 -0.00000000000E+00 -0.00000000000E+00 -0.45600000000E+02  0.45600000000E+02  0.00000000000E+00 0.  1.
        -11    1    1    2    0    0  0.45816557607E-01  0.76771603071E+00  0.37208619127E+02  0.37216566532E+02  0.00000000000E+00 0. -1.
         11    1    1    2    0    0  0.98634235368E+00 -0.16645276069E+01 -0.44657457502E+02  0.44699351606E+02  0.00000000000E+00 0.  1.
        -15    1    1    2    0    0  0.11452710529E+01  0.51063033848E+00  0.52885216097E+01  0.57182671277E+01  0.17770000000E+01 0.  1.
         15    1    1    2    0    0 -0.21774299642E+01  0.38618123769E+00  0.21603167652E+01  0.35658147348E+01  0.17770000000E+01 0. -1.
</event>
<event>
 6    1  0.3691007E-002  0.4232735E+02  0.7546771E-02  0.1334943E+00
        -11   -1    0    0    0    0  0.00000000000E+00  0.00000000000E+00  0.45600000000E+02  0.45600000000E+02  0.00000000000E+00 0.  1.
         11   -1    0    0    0    0 -0.00000000000E+00 -0.00000000000E+00 -0.45600000000E+02  0.45600000000E+02  0.00000000000E+00 0. -1.
        -11    1    1    2    0    0  0.43690565907E+00  0.51682206993E+00  0.42556211387E+02  0.42561592067E+02  0.00000000000E+00 0.  1.
         11    1    1    2    0    0  0.22066494361E+01 -0.76835296885E-01 -0.42078963215E+02  0.42136852643E+02  0.00000000000E+00 0. -1.
        -15    1    1    2    0    0 -0.34144958485E+01  0.48447814754E+00 -0.14544195297E+01  0.41432555006E+01  0.17770000000E+01 0. -1.
         15    1    1    2    0    0  0.77094075333E+00 -0.92446492059E+00  0.97717135777E+00  0.23582997895E+01  0.17770000000E+01 0.  1.
</event>
<event>
 6    1  0.3691007E-002  0.4063964E+02  0.7546771E-02  0.1344333E+00
        -11   -1    0    0    0    0  0.00000000000E+00  0.00000000000E+00  0.45600000000E+02  0.45600000000E+02  0.00000000000E+00 0.  1.
         11   -1    0    0    0    0 -0.00000000000E+00 -0.00000000000E+00 -0.45600000000E+02  0.45600000000E+02  0.00000000000E+00 0. -1.
        -11    1    1    2    0    0 -0.11809852117E+01 -0.14829540655E+01  0.41062269599E+02  0.41106007632E+02  0.00000000000E+00 0.  1.
         11    1    1    2    0    0  0.10848798037E+01 -0.40779918935E+01 -0.40147308234E+02  0.40368469633E+02  0.00000000000E+00 0. -1.
        -15    1    1    2    0    0 -0.32240493170E+00  0.41189416585E+01 -0.38917250479E+01  0.59475102501E+01  0.17770000000E+01 0. -1.
         15    1    1    2    0    0  0.41851033972E+00  0.14420043004E+01  0.29767636838E+01  0.37780124849E+01  0.17770000000E+01 0.  1.
</event>
<event>
 6    1  0.3691007E-002  0.3670383E+02  0.7546771E-02  0.1368442E+00
        -11   -1    0    0    0    0  0.00000000000E+00  0.00000000000E+00  0.45600000000E+02  0.45600000000E+02  0.00000000000E+00 0.  1.
         11   -1    0    0    0    0 -0.00000000000E+00 -0.00000000000E+00 -0.45600000000E+02  0.45600000000E+02  0.00000000000E+00 0. -1.
        -11    1    1    2    0    0  0.82892629525E+01  0.21955597756E+02  0.25729837633E+02  0.34825058474E+02  0.00000000000E+00 0.  1.
         11    1    1    2    0    0  0.13406418206E+01 -0.27688865961E+00 -0.53193147997E+00  0.14686520760E+01  0.00000000000E+00 0. -1.
        -15    1    1    2    0    0 -0.70801304907E+01 -0.63790059653E+01  0.11490885716E+02  0.15033899973E+02  0.17770000000E+01 0.  1.
         15    1    1    2    0    0 -0.25497742824E+01 -0.15299703131E+02 -0.36688791869E+02  0.39872389477E+02  0.17770000000E+01 0. -1.
</event>
<event>
 6    1  0.3691007E-002  0.4713980E+02  0.7546771E-02  0.1310732E+00
        -11   -1    0    0    0    0  0.00000000000E+00  0.00000000000E+00  0.45600000000E+02  0.45600000000E+02  0.00000000000E+00 0. -1.
         11   -1    0    0    0    0 -0.00000000000E+00 -0.00000000000E+00 -0.45600000000E+02  0.45600000000E+02  0.00000000000E+00 0. -1.
        -11    1    1    2    0    0  0.53545658918E+00 -0.22135752075E+01  0.44001304245E+02  0.44060202045E+02  0.00000000000E+00 0. -1.
         11    1    1    2    0    0 -0.12550638564E+01  0.93830112116E-01 -0.28640784594E+02  0.28668423945E+02  0.00000000000E+00 0. -1.
        -15    1    1    2    0    0 -0.35664145100E+01  0.36190599887E+01 -0.80162172761E+01  0.96557949479E+01  0.17770000000E+01 0. -1.
         15    1    1    2    0    0  0.42860217773E+01 -0.14993148933E+01 -0.73443023752E+01  0.88155790622E+01  0.17770000000E+01 0.  1.
</event>
<event>
 6    1  0.3691007E-002  0.4616089E+02  0.7546771E-02  0.1315379E+00
        -11   -1    0    0    0    0  0.00000000000E+00  0.00000000000E+00  0.45600000000E+02  0.45600000000E+02  0.00000000000E+00 0. -1.
         11   -1    0    0    0    0 -0.00000000000E+00 -0.00000000000E+00 -0.45600000000E+02  0.45600000000E+02  0.00000000000E+00 0. -1.
        -11    1    1    2    0    0  0.50936393393E+00 -0.96082746006E+00  0.33526701438E+02  0.33544334102E+02  0.00000000000E+00 0. -1.
         11    1    1    2    0    0  0.77659358283E+00  0.24648172102E+00 -0.45031740543E+02  0.45039110861E+02  0.00000000000E+00 0. -1.
        -15    1    1    2    0    0 -0.58848659325E+00 -0.55812524664E+00  0.18418742995E+01  0.26847812195E+01  0.17770000000E+01 0. -1.
         15    1    1    2    0    0 -0.69747092351E+00  0.12724709857E+01  0.96631648058E+01  0.99317738175E+01  0.17770000000E+01 0.  1.
</event>
<event>
 6    1  0.3691007E-002  0.5112739E+02  0.7546771E-02  0.1293061E+00
        -11   -1    0    0    0    0  0.00000000000E+00  0.00000000000E+00  0.45600000000E+02  0.45600000000E+02  0.00000000000E+00 0.  1.
         11   -1    0    0    0    0 -0.00000000000E+00 -0.00000000000E+00 -0.45600000000E+02  0.45600000000E+02  0.00000000000E+00 0. -1.
        -11    1    1    2    0    0  0.73936237858E+00 -0.23616963771E+01  0.33300114245E+02  0.33391943268E+02  0.00000000000E+00 0.  1.
         11    1    1    2    0    0 -0.16418212296E+01 -0.21342810520E+01 -0.39982036000E+02  0.40072608292E+02  0.00000000000E+00 0. -1.
        -15    1    1    2    0    0  0.12073979116E+01  0.31098529762E+01 -0.47551910617E+01  0.60744190079E+01  0.17770000000E+01 0.  1.
         15    1    1    2    0    0 -0.30493906061E+00  0.13861244529E+01  0.11437112817E+02  0.11661029432E+02  0.17770000000E+01 0.  1.
</event>
<event>
 6    1  0.3691007E-002  0.4826111E+02  0.7546771E-02  0.1305566E+00
        -11   -1    0    0    0    0  0.00000000000E+00  0.00000000000E+00  0.45600000000E+02  0.45600000000E+02  0.00000000000E+00 0. -1.
         11   -1    0    0    0    0 -0.00000000000E+00 -0.00000000000E+00 -0.45600000000E+02  0.45600000000E+02  0.00000000000E+00 0.  1.
        -11    1    1    2    0    0 -0.44304190897E+00 -0.15790647138E+01  0.42907562859E+02  0.42938894746E+02  0.00000000000E+00 0. -1.
         11    1    1    2    0    0 -0.22170584491E+01 -0.44869074579E+01 -0.21672062736E+02  0.22242436691E+02  0.00000000000E+00 0.  1.
        -15    1    1    2    0    0  0.68037260524E+01  0.37630889216E+01 -0.60473896463E+01  0.10009004794E+02  0.17770000000E+01 0. -1.
         15    1    1    2    0    0 -0.41436256943E+01  0.23028832501E+01 -0.15188110477E+02  0.16009663769E+02  0.17770000000E+01 0.  1.
</event>
<event>
 6    1  0.3691007E-002  0.4725206E+02  0.7546771E-02  0.1310207E+00
        -11   -1    0    0    0    0  0.00000000000E+00  0.00000000000E+00  0.45600000000E+02  0.45600000000E+02  0.00000000000E+00 0.  1.
         11   -1    0    0    0    0 -0.00000000000E+00 -0.00000000000E+00 -0.45600000000E+02  0.45600000000E+02  0.00000000000E+00 0.  1.
        -11    1    1    2    0    0  0.23840898095E+01 -0.10593481861E+00  0.43883093987E+02  0.43947935609E+02  0.00000000000E+00 0.  1.
         11    1    1    2    0    0  0.54701162520E+00 -0.69996349580E+00 -0.35764137146E+02  0.35775168433E+02  0.00000000000E+00 0.  1.
        -15    1    1    2    0    0 -0.37711327966E+01 -0.29258542379E-01 -0.83459471614E+01  0.93292476467E+01  0.17770000000E+01 0.  1.
         15    1    1    2    0    0  0.84003136192E+00  0.83515685678E+00  0.22699032052E+00  0.21476483115E+01  0.17770000000E+01 0. -1.
</event>
<event>
 6    1  0.3691007E-002  0.4741148E+02  0.7546771E-02  0.1309465E+00
        -11   -1    0    0    0    0  0.00000000000E+00  0.00000000000E+00  0.45600000000E+02  0.45600000000E+02  0.00000000000E+00 0.  1.
         11   -1    0    0    0    0 -0.00000000000E+00 -0.00000000000E+00 -0.45600000000E+02  0.45600000000E+02  0.00000000000E+00 0. -1.
        -11    1    1    2    0    0 -0.69570539219E+00 -0.98440213590E+00  0.21663802310E+02  0.21697312831E+02  0.00000000000E+00 0.  1.
         11    1    1    2    0    0 -0.95102012612E+00  0.10028363756E+00 -0.43778074793E+02  0.43788518229E+02  0.00000000000E+00 0. -1.
        -15    1    1    2    0    0  0.64120003105E+01 -0.17999404856E+01  0.85583894671E+01  0.10988962326E+02  0.17770000000E+01 0.  1.
         15    1    1    2    0    0 -0.47652747922E+01  0.26840589840E+01  0.13555883016E+02  0.14725206614E+02  0.17770000000E+01 0.  1.
</event>
<event>
 6    1  0.3691007E-002  0.2146314E+02  0.7546771E-02  0.1511688E+00
        -11   -1    0    0    0    0  0.00000000000E+00  0.00000000000E+00  0.45600000000E+02  0.45600000000E+02  0.00000000000E+00 0.  1.
         11   -1    0    0    0    0 -0.00000000000E+00 -0.00000000000E+00 -0.45600000000E+02  0.45600000000E+02  0.00000000000E+00 0. -1.
        -11    1    1    2    0    0  0.22906123032E+00 -0.53477995193E+00  0.25187091953E+02  0.25193809948E+02  0.00000000000E+00 0.  1.
         11    1    1    2    0    0  0.75769316519E-01 -0.53811723056E+00 -0.27105710508E+02  0.27111157358E+02  0.00000000000E+00 0. -1.
        -15    1    1    2    0    0 -0.17169138158E+01 -0.14495278760E+02 -0.11140894016E+02  0.18448255957E+02  0.17770000000E+01 0. -1.
         15    1    1    2    0    0  0.14120832690E+01  0.15568175943E+02  0.13059512571E+02  0.20446776737E+02  0.17770000000E+01 0.  1.
</event>
<event>
 6    1  0.3691007E-002  0.4665846E+02  0.7546771E-02  0.1313001E+00
        -11   -1    0    0    0    0  0.00000000000E+00  0.00000000000E+00  0.45600000000E+02  0.45600000000E+02  0.00000000000E+00 0.  1.
         11   -1    0    0    0    0 -0.00000000000E+00 -0.00000000000E+00 -0.45600000000E+02  0.45600000000E+02  0.00000000000E+00 0.  1.
        -11    1    1    2    0    0 -0.66643336828E+00 -0.79926777729E+00  0.32256101584E+02  0.32272884157E+02  0.00000000000E+00 0.  1.
         11    1    1    2    0    0  0.42965450235E+01 -0.25512050092E+01 -0.44260363032E+02  0.44541538835E+02  0.00000000000E+00 0.  1.
        -15    1    1    2    0    0 -0.27753414578E+00  0.12358926122E+01  0.85833618755E+01  0.88564262452E+01  0.17770000000E+01 0. -1.
         15    1    1    2    0    0 -0.33525775095E+01  0.21145801742E+01  0.34208995716E+01  0.55291507620E+01  0.17770000000E+01 0.  1.
</event>
<event>
 6    1  0.3691007E-002  0.4942543E+02  0.7546771E-02  0.1300369E+00
        -11   -1    0    0    0    0  0.00000000000E+00  0.00000000000E+00  0.45600000000E+02  0.45600000000E+02  0.00000000000E+00 0.  1.
         11   -1    0    0    0    0 -0.00000000000E+00 -0.00000000000E+00 -0.45600000000E+02  0.45600000000E+02  0.00000000000E+00 0.  1.
        -11    1    1    2    0    0 -0.19975896526E+01  0.20720780713E+01  0.41675304054E+02  0.41774571690E+02  0.00000000000E+00 0.  1.
         11    1    1    2    0    0  0.18520005324E+01 -0.92291305231E+00 -0.39180354646E+02  0.39234957176E+02  0.00000000000E+00 0.  1.
        -15    1    1    2    0    0  0.36427830240E+00  0.31767028454E+01  0.15790067485E+01  0.39843607971E+01  0.17770000000E+01 0. -1.
         15    1    1    2    0    0 -0.21868918221E+00 -0.43258678644E+01 -0.40739561564E+01  0.62061103361E+01  0.17770000000E+01 0.  1.
</event>
<event>
 6    1  0.3691007E-002  0.4669455E+02  0.7546771E-02  0.1312830E+00
        -11   -1    0    0    0    0  0.00000000000E+00  0.00000000000E+00  0.45600000000E+02  0.45600000000E+02  0.00000000000E+00 0. -1.
         11   -1    0    0    0    0 -0.00000000000E+00 -0.00000000000E+00 -0.45600000000E+02  0.45600000000E+02  0.00000000000E+00 0.  1.
        -11    1    1    2    0    0  0.49679497539E+00  0.63626697644E+00  0.44498129953E+02  0.44505451467E+02  0.00000000000E+00 0. -1.
         11    1    1    2    0    0 -0.74804546811E+00  0.72338677306E+00 -0.38478448106E+02  0.38492516534E+02  0.00000000000E+00 0.  1.
        -15    1    1    2    0    0  0.18988375218E+01  0.32317734037E+00 -0.28604746900E+01  0.38794422253E+01  0.17770000000E+01 0.  1.
         15    1    1    2    0    0 -0.16475870290E+01 -0.16828310899E+01 -0.31592071568E+01  0.43225897741E+01  0.17770000000E+01 0.  1.
</event>
<event>
 6    1  0.3691007E-002  0.4585862E+02  0.7546771E-02  0.1316841E+00
        -11   -1    0    0    0    0  0.00000000000E+00  0.00000000000E+00  0.45600000000E+02  0.45600000000E+02  0.00000000000E+00 0. -1.
         11   -1    0    0    0    0 -0.00000000000E+00 -0.00000000000E+00 -0.45600000000E+02  0.45600000000E+02  0.00000000000E+00 0.  1.
        -11    1    1    2    0    0  0.11779438525E+01 -0.15804199206E+00  0.30410419305E+01  0.32650367554E+01  0.00000000000E+00 0. -1.
         11    1    1    2    0    0  0.22373443341E+01  0.10167734492E+00 -0.45286029324E+02  0.45341377349E+02  0.00000000000E+00 0.  1.
        -15    1    1    2    0    0 -0.50582754115E+00  0.65657732506E-01  0.20471822619E+02  0.20555131301E+02  0.17770000000E+01 0.  1.
         15    1    1    2    0    0 -0.29094606455E+01 -0.92930853658E-02  0.21773164774E+02  0.22038454594E+02  0.17770000000E+01 0. -1.
</event>
<event>
 6    1  0.3691007E-002  0.4839392E+02  0.7546771E-02  0.1304964E+00
        -11   -1    0    0    0    0  0.00000000000E+00  0.00000000000E+00  0.45600000000E+02  0.45600000000E+02  0.00000000000E+00 0.  1.
         11   -1    0    0    0    0 -0.00000000000E+00 -0.00000000000E+00 -0.45600000000E+02  0.45600000000E+02  0.00000000000E+00 0. -1.
        -11    1    1    2    0    0 -0.98172490444E+00  0.14147201899E+00  0.42794588908E+02  0.42806081787E+02  0.00000000000E+00 0.  1.
         11    1    1    2    0    0 -0.49589319079E+00  0.91323586420E+00 -0.37480615773E+02  0.37495019250E+02  0.00000000000E+00 0. -1.
        -15    1    1    2    0    0 -0.15966923995E+01  0.80015255743E+00 -0.62897579468E+01  0.67755778176E+01  0.17770000000E+01 0. -1.
         15    1    1    2    0    0  0.30743104947E+01 -0.18548604406E+01  0.97578481187E+00  0.41233211458E+01  0.17770000000E+01 0. -1.
</event>
<event>
 6    1  0.3691007E-002  0.4610176E+02  0.7546771E-02  0.1315664E+00
        -11   -1    0    0    0    0  0.00000000000E+00  0.00000000000E+00  0.45600000000E+02  0.45600000000E+02  0.00000000000E+00 0. -1.
         11   -1    0    0    0    0 -0.00000000000E+00 -0.00000000000E+00 -0.45600000000E+02  0.45600000000E+02  0.00000000000E+00 0. -1.
        -11    1    1    2    0    0 -0.13134617579E+01  0.42955240792E+00  0.45077064252E+02  0.45098241857E+02  0.00000000000E+00 0. -1.
         11    1    1    2    0    0  0.32836659268E+00 -0.47591557682E+00 -0.36342952800E+02  0.36347552029E+02  0.00000000000E+00 0. -1.
        -15    1    1    2    0    0  0.80056946611E-01 -0.65531372527E+00 -0.22935237079E+01  0.29755377987E+01  0.17770000000E+01 0. -1.
         15    1    1    2    0    0  0.90503821859E+00  0.70167689416E+00 -0.64405877437E+01  0.67786683150E+01  0.17770000000E+01 0.  1.
</event>
<event>
 6    1  0.3691007E-002  0.2597419E+02  0.7546771E-02  0.1457353E+00
        -11   -1    0    0    0    0  0.00000000000E+00  0.00000000000E+00  0.45600000000E+02  0.45600000000E+02  0.00000000000E+00 0.  1.
         11   -1    0    0    0    0 -0.00000000000E+00 -0.00000000000E+00 -0.45600000000E+02  0.45600000000E+02  0.00000000000E+00 0.  1.
        -11    1    1    2    0    0 -0.10584039093E+01  0.48107120329E+00  0.24031839389E+02  0.24059944986E+02  0.00000000000E+00 0.  1.
         11    1    1    2    0    0 -0.75129864619E+01  0.48218016610E+01 -0.30449579407E+02  0.31731240488E+02  0.00000000000E+00 0.  1.
        -15    1    1    2    0    0  0.85544419890E+01 -0.13073183202E+02  0.16343029558E+02  0.22679041887E+02  0.17770000000E+01 0.  1.
         15    1    1    2    0    0  0.16948382171E-01  0.77703103377E+01 -0.99252895398E+01  0.12729772639E+02  0.17770000000E+01 0. -1.
</event>
<event>
 6    1  0.3691007E-002  0.4734259E+02  0.7546771E-02  0.1309785E+00
        -11   -1    0    0    0    0  0.00000000000E+00  0.00000000000E+00  0.45600000000E+02  0.45600000000E+02  0.00000000000E+00 0. -1.
         11   -1    0    0    0    0 -0.00000000000E+00 -0.00000000000E+00 -0.45600000000E+02  0.45600000000E+02  0.00000000000E+00 0. -1.
        -11    1    1    2    0    0  0.84960226318E+00 -0.26609194332E+00  0.15868528697E+02  0.15893483946E+02  0.00000000000E+00 0. -1.
         11    1    1    2    0    0 -0.50514338631E+00  0.56411156845E+00 -0.43850873702E+02  0.43857411188E+02  0.00000000000E+00 0. -1.
        -15    1    1    2    0    0 -0.70365087014E+01  0.93512987282E+00  0.14618853850E+02  0.16347952149E+02  0.17770000000E+01 0.  1.
         15    1    1    2    0    0  0.66920498245E+01 -0.12331494980E+01  0.13363491154E+02  0.15101152717E+02  0.17770000000E+01 0. -1.
</event>
<event>
 6    1  0.3691007E-002  0.4916307E+02  0.7546771E-02  0.1301526E+00
        -11   -1    0    0    0    0  0.00000000000E+00  0.00000000000E+00  0.45600000000E+02  0.45600000000E+02  0.00000000000E+00 0. -1.
         11   -1    0    0    0    0 -0.00000000000E+00 -0.00000000000E+00 -0.45600000000E+02  0.45600000000E+02  0.00000000000E+00 0. -1.
        -11    1    1    2    0    0  0.31556991180E+01  0.11591214882E+01  0.35223400863E+02  0.35383470264E+02  0.00000000000E+00 0. -1.
         11    1    1    2    0    0  0.66140491723E+00 -0.44867994222E+00 -0.42029330685E+02  0.42036929098E+02  0.00000000000E+00 0. -1.
        -15    1    1    2    0    0 -0.27806840900E+00 -0.35748205487E+01  0.78232859178E+01  0.87873884373E+01  0.17770000000E+01 0.  1.
         15    1    1    2    0    0 -0.35390356262E+01  0.28643790028E+01 -0.10173560953E+01  0.49922122010E+01  0.17770000000E+01 0. -1.
</event>
<event>
 6    1  0.3691007E-002  0.4597864E+02  0.7546771E-02  0.1316259E+00
        -11   -1    0    0    0    0  0.00000000000E+00  0.00000000000E+00  0.45600000000E+02  0.45600000000E+02  0.00000000000E+00 0.  1.
         11   -1    0    0    0    0 -0.00000000000E+00 -0.00000000000E+00 -0.45600000000E+02  0.45600000000E+02  0.00000000000E+00 0.  1.
        -11    1    1    2    0    0  0.14496447046E+00 -0.10924178354E+01  0.27832871548E+02  0.27854678781E+02  0.00000000000E+00 0.  1.
         11    1    1    2    0    0 -0.76807795179E+00  0.68024662168E-01 -0.45214789267E+02  0.45221363752E+02  0.00000000000E+00 0.  1.
        -15    1    1    2    0    0  0.10119444824E+00  0.69255051609E+00  0.26178774080E+01  0.32405057718E+01  0.17770000000E+01 0.  1.
         15    1    1    2    0    0  0.52191903309E+00  0.33184265712E+00  0.14764040312E+02  0.14883451695E+02  0.17770000000E+01 0. -1.
</event>
<event>
 6    1  0.3691007E-002  0.4713254E+02  0.7546771E-02  0.1310766E+00
        -11   -1    0    0    0    0  0.00000000000E+00  0.00000000000E+00  0.45600000000E+02  0.45600000000E+02  0.00000000000E+00 0.  1.
         11   -1    0    0    0    0 -0.00000000000E+00 -0.00000000000E+00 -0.45600000000E+02  0.45600000000E+02  0.00000000000E+00 0.  1.
        -11    1    1    2    0    0 -0.37263610277E+00  0.12248023539E+01  0.39502558927E+02  0.39523298955E+02  0.00000000000E+00 0.  1.
         11    1    1    2    0    0  0.56480016865E+00  0.69370793621E+00 -0.44058377700E+02  0.44067458237E+02  0.00000000000E+00 0.  1.
        -15    1    1    2    0    0  0.13139533905E+01 -0.43666136756E+00  0.42775075925E+01  0.48344541435E+01  0.17770000000E+01 0.  1.
         15    1    1    2    0    0 -0.15061174563E+01 -0.14818489226E+01  0.27831118026E+00  0.27747886649E+01  0.17770000000E+01 0.  1.
</event>
<event>
 6    1  0.3691007E-002  0.4800107E+02  0.7546771E-02  0.1306749E+00
        -11   -1    0    0    0    0  0.00000000000E+00  0.00000000000E+00  0.45600000000E+02  0.45600000000E+02  0.00000000000E+00 0.  1.
         11   -1    0    0    0    0 -0.00000000000E+00 -0.00000000000E+00 -0.45600000000E+02  0.45600000000E+02  0.00000000000E+00 0. -1.
        -11    1    1    2    0    0  0.52086408095E+00  0.60335178665E+00  0.38139028880E+02  0.38147357139E+02  0.00000000000E+00 0.  1.
         11    1    1    2    0    0 -0.57590658859E+01  0.26203153957E+01 -0.42733058715E+02  0.43198925910E+02  0.00000000000E+00 0. -1.
        -15    1    1    2    0    0  0.15468462876E+01 -0.37040876016E+01  0.13098322029E+01  0.45810902412E+01  0.17770000000E+01 0. -1.
         15    1    1    2    0    0  0.36913555174E+01  0.48042041929E+00  0.32841976317E+01  0.52726267096E+01  0.17770000000E+01 0.  1.
</event>
<event>
 6    1  0.3691007E-002  0.4808217E+02  0.7546771E-02  0.1306379E+00
        -11   -1    0    0    0    0  0.00000000000E+00  0.00000000000E+00  0.45600000000E+02  0.45600000000E+02  0.00000000000E+00 0. -1.
         11   -1    0    0    0    0 -0.00000000000E+00 -0.00000000000E+00 -0.45600000000E+02  0.45600000000E+02  0.00000000000E+00 0. -1.
        -11    1    1    2    0    0  0.81171089593E+00 -0.59833870894E+00  0.39155152742E+02  0.39168135902E+02  0.00000000000E+00 0. -1.
         11    1    1    2    0    0  0.15944510378E+01 -0.13324213221E+01 -0.43067738101E+02  0.43117834893E+02  0.00000000000E+00 0. -1.
        -15    1    1    2    0    0  0.53873712567E+00  0.76114548458E+00 -0.14222385134E+01  0.24596893154E+01  0.17770000000E+01 0.  1.
         15    1    1    2    0    0 -0.29448990594E+01  0.11696145465E+01  0.53348238733E+01  0.64543398900E+01  0.17770000000E+01 0. -1.
</event>
<event>
 6    1  0.3691007E-002  0.4613571E+02  0.7546771E-02  0.1315501E+00
        -11   -1    0    0    0    0  0.00000000000E+00  0.00000000000E+00  0.45600000000E+02  0.45600000000E+02  0.00000000000E+00 0.  1.
         11   -1    0    0    0    0 -0.00000000000E+00 -0.00000000000E+00 -0.45600000000E+02  0.45600000000E+02  0.00000000000E+00 0.  1.
        -11    1    1    2    0    0 -0.49997386723E+00 -0.57475601013E+00  0.45057852598E+02  0.45064291841E+02  0.00000000000E+00 0.  1.
         11    1    1    2    0    0 -0.68370865435E+00 -0.49190074260E+00 -0.37323994779E+02  0.37333497159E+02  0.00000000000E+00 0.  1.
        -15    1    1    2    0    0  0.11322051679E+01  0.17497967012E+00 -0.49335334401E+01  0.53674936080E+01  0.17770000000E+01 0.  1.
         15    1    1    2    0    0  0.51477353635E-01  0.89167708261E+00 -0.28003243787E+01  0.34347173921E+01  0.17770000000E+01 0. -1.
</event>
<event>
 6    1  0.3691007E-002  0.5871837E+02  0.7546771E-02  0.1264036E+00
        -11   -1    0    0    0    0  0.00000000000E+00  0.00000000000E+00  0.45600000000E+02  0.45600000000E+02  0.00000000000E+00 0.  1.
         11   -1    0    0    0    0 -0.00000000000E+00 -0.00000000000E+00 -0.45600000000E+02  0.45600000000E+02  0.00000000000E+00 0.  1.
        -11    1    1    2    0    0 -0.50286055255E-01  0.40597049016E+01  0.26841449769E+02  0.27146770679E+02  0.00000000000E+00 0.  1.
         11    1    1    2    0    0 -0.30775748177E+01 -0.15856502705E+01 -0.32296602662E+02  0.32481630148E+02  0.00000000000E+00 0.  1.
        -15    1    1    2    0    0  0.14822326272E+01 -0.92159276410E+01  0.16127110624E+02  0.18718220052E+02  0.17770000000E+01 0.  1.
         15    1    1    2    0    0  0.16456282457E+01  0.67418730099E+01 -0.10671957732E+02  0.12853379121E+02  0.17770000000E+01 0. -1.
</event>
<event>
 6    1  0.3691007E-002  0.4091651E+02  0.7546771E-02  0.1342756E+00
        -11   -1    0    0    0    0  0.00000000000E+00  0.00000000000E+00  0.45600000000E+02  0.45600000000E+02  0.00000000000E+00 0.  1.
         11   -1    0    0    0    0 -0.00000000000E+00 -0.00000000000E+00 -0.45600000000E+02  0.45600000000E+02  0.00000000000E+00 0.  1.
        -11    1    1    2    0    0 -0.48167760334E+01 -0.28686765720E+01  0.38915864699E+02  0.39317618976E+02  0.00000000000E+00 0.  1.
         11    1    1    2    0    0  0.31704734530E+00 -0.77747277276E+00 -0.42803936417E+02  0.42812170650E+02  0.00000000000E+00 0.  1.
        -15    1    1    2    0    0  0.48197024681E+01  0.21110183494E+01  0.37400164966E+01  0.66956241492E+01  0.17770000000E+01 0.  1.
         15    1    1    2    0    0 -0.31997377998E+00  0.15351309954E+01  0.14805522103E+00  0.23745862253E+01  0.17770000000E+01 0. -1.
</event>
<event>
 6    1  0.3691007E-002  0.4592429E+02  0.7546771E-02  0.1316522E+00
        -11   -1    0    0    0    0  0.00000000000E+00  0.00000000000E+00  0.45600000000E+02  0.45600000000E+02  0.00000000000E+00 0.  1.
         11   -1    0    0    0    0 -0.00000000000E+00 -0.00000000000E+00 -0.45600000000E+02  0.45600000000E+02  0.00000000000E+00 0.  1.
        -11    1    1    2    0    0 -0.48160355566E+00  0.52275210065E+00  0.45270134812E+02  0.45275714436E+02  0.00000000000E+00 0.  1.
         11    1    1    2    0    0 -0.14725902792E+01  0.49767573374E-01 -0.11615150625E+02  0.11708233128E+02  0.00000000000E+00 0.  1.
        -15    1    1    2    0    0  0.26426619346E+01 -0.16868356055E+01 -0.14807049068E+02  0.15239275165E+02  0.17770000000E+01 0. -1.
         15    1    1    2    0    0 -0.68846809971E+00  0.11143159315E+01 -0.18847935119E+02  0.18976777270E+02  0.17770000000E+01 0.  1.
</event>
<event>
 6    1  0.3691007E-002  0.4593968E+02  0.7546771E-02  0.1316448E+00
        -11   -1    0    0    0    0  0.00000000000E+00  0.00000000000E+00  0.45600000000E+02  0.45600000000E+02  0.00000000000E+00 0.  1.
         11   -1    0    0    0    0 -0.00000000000E+00 -0.00000000000E+00 -0.45600000000E+02  0.45600000000E+02  0.00000000000E+00 0. -1.
        -11    1    1    2    0    0  0.49749180010E+00 -0.40166619824E+00  0.45255801259E+02  0.45260317955E+02  0.00000000000E+00 0.  1.
         11    1    1    2    0    0  0.38774084520E+00  0.65182739836E+00 -0.17710731155E+02  0.17726963078E+02  0.00000000000E+00 0. -1.
        -15    1    1    2    0    0  0.14316267551E+01 -0.16845623462E+01 -0.13709209534E+02  0.13999552154E+02  0.17770000000E+01 0. -1.
         15    1    1    2    0    0 -0.23168594004E+01  0.14344011461E+01 -0.13835860570E+02  0.14213166812E+02  0.17770000000E+01 0. -1.
</event>
<event>
 6    1  0.3691007E-002  0.4963133E+02  0.7546771E-02  0.1299467E+00
        -11   -1    0    0    0    0  0.00000000000E+00  0.00000000000E+00  0.45600000000E+02  0.45600000000E+02  0.00000000000E+00 0.  1.
         11   -1    0    0    0    0 -0.00000000000E+00 -0.00000000000E+00 -0.45600000000E+02  0.45600000000E+02  0.00000000000E+00 0. -1.
        -11    1    1    2    0    0  0.11001445972E+01 -0.25843660909E+00  0.40121825239E+02  0.40137737456E+02  0.00000000000E+00 0.  1.
         11    1    1    2    0    0 -0.79139310138E+00  0.55506027866E+00 -0.41557430513E+02  0.41568671206E+02  0.00000000000E+00 0. -1.
        -15    1    1    2    0    0  0.30215112566E+01  0.11659429046E+01 -0.19850924556E+01  0.41937184202E+01  0.17770000000E+01 0.  1.
         15    1    1    2    0    0 -0.33302627525E+01 -0.14625665742E+01  0.34206977297E+01  0.52998729176E+01  0.17770000000E+01 0. -1.
</event>
<event>
 6    1  0.3691007E-002  0.3553237E+02  0.7546771E-02  0.1376307E+00
        -11   -1    0    0    0    0  0.00000000000E+00  0.00000000000E+00  0.45600000000E+02  0.45600000000E+02  0.00000000000E+00 0. -1.
         11   -1    0    0    0    0 -0.00000000000E+00 -0.00000000000E+00 -0.45600000000E+02  0.45600000000E+02  0.00000000000E+00 0.  1.
        -11    1    1    2    0    0  0.11782367564E+02 -0.70357420344E+01  0.33116058257E+02  0.35846885023E+02  0.00000000000E+00 0. -1.
         11    1    1    2    0    0  0.14559635656E+01  0.14014817131E+01 -0.36692168322E+02  0.36747778125E+02  0.00000000000E+00 0.  1.
        -15    1    1    2    0    0 -0.10187112380E+02  0.29281634243E+01 -0.25388981694E+01  0.11043329779E+02  0.17770000000E+01 0. -1.
         15    1    1    2    0    0 -0.30512187492E+01  0.27060968970E+01  0.61150082351E+01  0.75620070739E+01  0.17770000000E+01 0.  1.
</event>
<event>
 6    1  0.3691007E-002  0.4723899E+02  0.7546771E-02  0.1310268E+00
        -11   -1    0    0    0    0  0.00000000000E+00  0.00000000000E+00  0.45600000000E+02  0.45600000000E+02  0.00000000000E+00 0.  1.
         11   -1    0    0    0    0 -0.00000000000E+00 -0.00000000000E+00 -0.45600000000E+02  0.45600000000E+02  0.00000000000E+00 0. -1.
        -11    1    1    2    0    0 -0.69583473529E+00 -0.49341086030E+00  0.41208483706E+02  0.41217311528E+02  0.00000000000E+00 0.  1.
         11    1    1    2    0    0 -0.10972097417E+01  0.63235820894E-01 -0.43947265780E+02  0.43961005875E+02  0.00000000000E+00 0. -1.
        -15    1    1    2    0    0  0.17638474356E+01  0.10911877793E+01  0.30565739447E+01  0.40990513323E+01  0.17770000000E+01 0.  1.
         15    1    1    2    0    0  0.29197041424E-01 -0.66101273985E+00 -0.31779187024E+00  0.19226312653E+01  0.17770000000E+01 0. -1.
</event>
<event>
 6    1  0.3691007E-002  0.4721887E+02  0.7546771E-02  0.1310362E+00
        -11   -1    0    0    0    0  0.00000000000E+00  0.00000000000E+00  0.45600000000E+02  0.45600000000E+02  0.00000000000E+00 0.  1.
         11   -1    0    0    0    0 -0.00000000000E+00 -0.00000000000E+00 -0.45600000000E+02  0.45600000000E+02  0.00000000000E+00 0.  1.
        -11    1    1    2    0    0  0.87193874682E-01 -0.15230877900E+01  0.38874607140E+02  0.38904530321E+02  0.00000000000E+00 0.  1.
         11    1    1    2    0    0 -0.30567135436E+01  0.93774408037E+00 -0.43864761295E+02  0.43981133968E+02  0.00000000000E+00 0.  1.
        -15    1    1    2    0    0  0.17599613232E+01 -0.20376549859E+01  0.20199740398E+01  0.38062482607E+01  0.17770000000E+01 0. -1.
         15    1    1    2    0    0  0.12095583458E+01  0.26229986955E+01  0.29701801148E+01  0.45080874507E+01  0.17770000000E+01 0.  1.
</event>
<event>
 6    1  0.3691007E-002  0.2644277E+02  0.7546771E-02  0.1452465E+00
        -11   -1    0    0    0    0  0.00000000000E+00  0.00000000000E+00  0.45600000000E+02  0.45600000000E+02  0.00000000000E+00 0.  1.
         11   -1    0    0    0    0 -0.00000000000E+00 -0.00000000000E+00 -0.45600000000E+02  0.45600000000E+02  0.00000000000E+00 0. -1.
        -11    1    1    2    0    0  0.10251213112E+01  0.98209232212E+00  0.23435486578E+02  0.23478445651E+02  0.00000000000E+00 0.  1.
         11    1    1    2    0    0 -0.65697618772E+00 -0.69406959708E+00 -0.33832285466E+02  0.33845780981E+02  0.00000000000E+00 0. -1.
        -15    1    1    2    0    0  0.50620546744E+01  0.60193159343E+01  0.19688529597E+02  0.21275631331E+02  0.17770000000E+01 0.  1.
         15    1    1    2    0    0 -0.54301997979E+01 -0.63073386594E+01 -0.92917307086E+01  0.12600142038E+02  0.17770000000E+01 0. -1.
</event>
<event>
 6    1  0.3691007E-002  0.4628970E+02  0.7546771E-02  0.1314760E+00
        -11   -1    0    0    0    0  0.00000000000E+00  0.00000000000E+00  0.45600000000E+02  0.45600000000E+02  0.00000000000E+00 0. -1.
         11   -1    0    0    0    0 -0.00000000000E+00 -0.00000000000E+00 -0.45600000000E+02  0.45600000000E+02  0.00000000000E+00 0.  1.
        -11    1    1    2    0    0  0.23200914119E+01  0.30913320211E+01  0.44743664620E+02  0.44910295941E+02  0.00000000000E+00 0. -1.
         11    1    1    2    0    0 -0.16674540664E+01  0.57249056200E+00 -0.15020456289E+02  0.15123566234E+02  0.00000000000E+00 0.  1.
        -15    1    1    2    0    0  0.18068727147E+01 -0.89167324029E+00 -0.26183382291E+01  0.37514389582E+01  0.17770000000E+01 0. -1.
         15    1    1    2    0    0 -0.24595100602E+01 -0.27721493428E+01 -0.27104870102E+02  0.27414698867E+02  0.17770000000E+01 0.  1.
</event>
<event>
 6    1  0.3691007E-002  0.4763498E+02  0.7546771E-02  0.1308430E+00
        -11   -1    0    0    0    0  0.00000000000E+00  0.00000000000E+00  0.45600000000E+02  0.45600000000E+02  0.00000000000E+00 0.  1.
         11   -1    0    0    0    0 -0.00000000000E+00 -0.00000000000E+00 -0.45600000000E+02  0.45600000000E+02  0.00000000000E+00 0. -1.
        -11    1    1    2    0    0 -0.34521439493E+01  0.49355586375E+01  0.25742127160E+02  0.26437362721E+02  0.00000000000E+00 0.  1.
         11    1    1    2    0    0  0.45741166470E+01  0.19426599234E+01 -0.43280647405E+02  0.43565019345E+02  0.00000000000E+00 0. -1.
        -15    1    1    2    0    0  0.11278127027E+01 -0.36043477767E+01  0.16072471811E+02  0.16605582300E+02  0.17770000000E+01 0. -1.
         15    1    1    2    0    0 -0.22497854003E+01 -0.32738707842E+01  0.14660484342E+01  0.45920356347E+01  0.17770000000E+01 0.  1.
</event>
<event>
 6    1  0.3691007E-002  0.4616406E+02  0.7546771E-02  0.1315364E+00
        -11   -1    0    0    0    0  0.00000000000E+00  0.00000000000E+00  0.45600000000E+02  0.45600000000E+02  0.00000000000E+00 0.  1.
         11   -1    0    0    0    0 -0.00000000000E+00 -0.00000000000E+00 -0.45600000000E+02  0.45600000000E+02  0.00000000000E+00 0. -1.
        -11    1    1    2    0    0 -0.51827423332E+00 -0.77422146871E+00  0.45026297380E+02  0.45035935460E+02  0.00000000000E+00 0.  1.
         11    1    1    2    0    0 -0.88538482153E+00 -0.99505702564E-01 -0.25495462003E+02  0.25511024879E+02  0.00000000000E+00 0. -1.
        -15    1    1    2    0    0  0.19406830359E+01  0.24545946037E+01 -0.68268864852E+01  0.77172140955E+01  0.17770000000E+01 0. -1.
         15    1    1    2    0    0 -0.53702398100E+00 -0.15808674324E+01 -0.12703948892E+02  0.12935825565E+02  0.17770000000E+01 0. -1.
</event>
<event>
 6    1  0.3691007E-002  0.4682374E+02  0.7546771E-02  0.1312218E+00
        -11   -1    0    0    0    0  0.00000000000E+00  0.00000000000E+00  0.45600000000E+02  0.45600000000E+02  0.00000000000E+00 0. -1.
         11   -1    0    0    0    0 -0.00000000000E+00 -0.00000000000E+00 -0.45600000000E+02  0.45600000000E+02  0.00000000000E+00 0. -1.
        -11    1    1    2    0    0 -0.35690203679E+01  0.42293117536E+00  0.31466770785E+02  0.31671350473E+02  0.00000000000E+00 0. -1.
         11    1    1    2    0    0  0.42663497783E+00  0.10488959656E+01 -0.44361812187E+02  0.44376261455E+02  0.00000000000E+00 0. -1.
        -15    1    1    2    0    0  0.28221545614E+01  0.16905694084E+00  0.12151198887E+02  0.12601686396E+02  0.17770000000E+01 0. -1.
         15    1    1    2    0    0  0.32023082869E+00 -0.16408840818E+01  0.74384251501E+00  0.25507016761E+01  0.17770000000E+01 0.  1.
</event>
<event>
 6    1  0.3691007E-002  0.4850919E+02  0.7546771E-02  0.1304444E+00
        -11   -1    0    0    0    0  0.00000000000E+00  0.00000000000E+00  0.45600000000E+02  0.45600000000E+02  0.00000000000E+00 0. -1.
         11   -1    0    0    0    0 -0.00000000000E+00 -0.00000000000E+00 -0.45600000000E+02  0.45600000000E+02  0.00000000000E+00 0.  1.
        -11    1    1    2    0    0  0.63374618582E+00  0.11045877106E+00  0.33876638744E+02  0.33882746169E+02  0.00000000000E+00 0. -1.
         11    1    1    2    0    0 -0.91289489682E+00 -0.25121793789E+01 -0.42607053565E+02  0.42690812078E+02  0.00000000000E+00 0.  1.
        -15    1    1    2    0    0 -0.11756072751E+01 -0.12475057182E+01  0.98639100423E+01  0.10168223704E+02  0.17770000000E+01 0. -1.
         15    1    1    2    0    0  0.14547559861E+01  0.36492263260E+01 -0.11334952207E+01  0.44582180490E+01  0.17770000000E+01 0.  1.
</event>
<event>
 6    1  0.3691007E-002  0.4691048E+02  0.7546771E-02  0.1311809E+00
        -11   -1    0    0    0    0  0.00000000000E+00  0.00000000000E+00  0.45600000000E+02  0.45600000000E+02  0.00000000000E+00 0.  1.
         11   -1    0    0    0    0 -0.00000000000E+00 -0.00000000000E+00 -0.45600000000E+02  0.45600000000E+02  0.00000000000E+00 0. -1.
        -11    1    1    2    0    0  0.36737377304E+00 -0.19790970865E+01  0.25154023451E+02  0.25234434500E+02  0.00000000000E+00 0.  1.
         11    1    1    2    0    0  0.11885769301E+01 -0.41574467375E+00 -0.44271619260E+02  0.44289522809E+02  0.00000000000E+00 0. -1.
        -15    1    1    2    0    0  0.16758171122E+00  0.30099290543E+01  0.18779704100E+02  0.19102951909E+02  0.17770000000E+01 0.  1.
         15    1    1    2    0    0 -0.17235324143E+01 -0.61508729407E+00  0.33789170902E+00  0.25730907815E+01  0.17770000000E+01 0.  1.
</event>
<event>
 6    1  0.3691007E-002  0.4711198E+02  0.7546771E-02  0.1310862E+00
        -11   -1    0    0    0    0  0.00000000000E+00  0.00000000000E+00  0.45600000000E+02  0.45600000000E+02  0.00000000000E+00 0.  1.
         11   -1    0    0    0    0 -0.00000000000E+00 -0.00000000000E+00 -0.45600000000E+02  0.45600000000E+02  0.00000000000E+00 0. -1.
        -11    1    1    2    0    0 -0.12106839990E+01  0.13473980631E+01  0.41215668278E+02  0.41255454778E+02  0.00000000000E+00 0.  1.
         11    1    1    2    0    0  0.45441855818E+00  0.10810734584E+01 -0.44072425101E+02  0.44088024114E+02  0.00000000000E+00 0. -1.
        -15    1    1    2    0    0  0.13047315046E+00 -0.10168952188E+01 -0.12751124136E+00  0.20555017017E+01  0.17770000000E+01 0. -1.
         15    1    1    2    0    0  0.62579229038E+00 -0.14115763027E+01  0.29842680639E+01  0.38010194062E+01  0.17770000000E+01 0. -1.
</event>
<event>
 6    1  0.3691007E-002  0.4705033E+02  0.7546771E-02  0.1311151E+00
        -11   -1    0    0    0    0  0.00000000000E+00  0.00000000000E+00  0.45600000000E+02  0.45600000000E+02  0.00000000000E+00 0. -1.
         11   -1    0    0    0    0 -0.00000000000E+00 -0.00000000000E+00 -0.45600000000E+02  0.45600000000E+02  0.00000000000E+00 0. -1.
        -11    1    1    2    0    0  0.14318013441E+01  0.18230378653E+01  0.30661565703E+02  0.30749067197E+02  0.00000000000E+00 0. -1.
         11    1    1    2    0    0  0.67546521017E+00 -0.72375814101E+00 -0.44138566191E+02  0.44149667094E+02  0.00000000000E+00 0. -1.
        -15    1    1    2    0    0 -0.24264728317E+01  0.42557958834E+00  0.13599765799E+02  0.13934857272E+02  0.17770000000E+01 0. -1.
         15    1    1    2    0    0  0.31920627747E+00 -0.15248593127E+01 -0.12276531110E+00  0.23664084374E+01  0.17770000000E+01 0. -1.
</event>
<event>
 6    1  0.3691007E-002  0.4682165E+02  0.7546771E-02  0.1312228E+00
        -11   -1    0    0    0    0  0.00000000000E+00  0.00000000000E+00  0.45600000000E+02  0.45600000000E+02  0.00000000000E+00 0.  1.
         11   -1    0    0    0    0 -0.00000000000E+00 -0.00000000000E+00 -0.45600000000E+02  0.45600000000E+02  0.00000000000E+00 0.  1.
        -11    1    1    2    0    0 -0.17590100892E+01 -0.23223869152E+01  0.44282621721E+02  0.44378352650E+02  0.00000000000E+00 0.  1.
         11    1    1    2    0    0  0.19055978345E+00  0.21117959601E+01 -0.32368329158E+02  0.32437705340E+02  0.00000000000E+00 0.  1.
        -15    1    1    2    0    0  0.19702747898E+01 -0.15859572133E+01 -0.11156068004E+01  0.32862669646E+01  0.17770000000E+01 0. -1.
         15    1    1    2    0    0 -0.40182448407E+00  0.17965481683E+01 -0.10798685762E+02  0.11097675046E+02  0.17770000000E+01 0.  1.
</event>
<event>
 6    1  0.3691007E-002  0.4861198E+02  0.7546771E-02  0.1303982E+00
        -11   -1    0    0    0    0  0.00000000000E+00  0.00000000000E+00  0.45600000000E+02  0.45600000000E+02  0.00000000000E+00 0.  1.
         11   -1    0    0    0    0 -0.00000000000E+00 -0.00000000000E+00 -0.45600000000E+02  0.45600000000E+02  0.00000000000E+00 0. -1.
        -11    1    1    2    0    0 -0.51598514783E+01 -0.87963982068E+00  0.35265129288E+02  0.35651468093E+02  0.00000000000E+00 0.  1.
         11    1    1    2    0    0  0.19655816536E+01 -0.54181509475E+01 -0.42196200895E+02  0.42588017574E+02  0.00000000000E+00 0. -1.
        -15    1    1    2    0    0  0.26822959666E+01  0.73728026790E+01  0.31952513509E+01  0.86556508242E+01  0.17770000000E+01 0.  1.
         15    1    1    2    0    0  0.51197385813E+00 -0.10750119108E+01  0.37358202562E+01  0.43048635085E+01  0.17770000000E+01 0.  1.
</event>
<event>
 6    1  0.3691007E-002  0.4729913E+02  0.7546771E-02  0.1309988E+00
        -11   -1    0    0    0    0  0.00000000000E+00  0.00000000000E+00  0.45600000000E+02  0.45600000000E+02  0.00000000000E+00 0. -1.
         11   -1    0    0    0    0 -0.00000000000E+00 -0.00000000000E+00 -0.45600000000E+02  0.45600000000E+02  0.00000000000E+00 0. -1.
        -11    1    1    2    0    0 -0.54954401652E+00 -0.29049115967E-01  0.16701861849E+02  0.16710925519E+02  0.00000000000E+00 0. -1.
         11    1    1    2    0    0  0.75102418554E+00  0.41304555898E+00 -0.43892500292E+02  0.43900868167E+02  0.00000000000E+00 0. -1.
        -15    1    1    2    0    0 -0.22716179583E+01  0.78307688724E+00 -0.23944490225E+00  0.29980861263E+01  0.17770000000E+01 0. -1.
         15    1    1    2    0    0  0.20701377892E+01 -0.11670733303E+01  0.27430083345E+02  0.27590120187E+02  0.17770000000E+01 0. -1.
</event>
<event>
 6    1  0.3691007E-002  0.4672092E+02  0.7546771E-02  0.1312705E+00
        -11   -1    0    0    0    0  0.00000000000E+00  0.00000000000E+00  0.45600000000E+02  0.45600000000E+02  0.00000000000E+00 0. -1.
         11   -1    0    0    0    0 -0.00000000000E+00 -0.00000000000E+00 -0.45600000000E+02  0.45600000000E+02  0.00000000000E+00 0. -1.
        -11    1    1    2    0    0  0.25850972298E+00 -0.78045233276E+00  0.44471477051E+02  0.44479076027E+02  0.00000000000E+00 0. -1.
         11    1    1    2    0    0  0.12320933682E+01  0.64467248269E+00 -0.41306794672E+02  0.41330194080E+02  0.00000000000E+00 0. -1.
        -15    1    1    2    0    0 -0.55337660629E+00  0.10654752462E+01 -0.14188955562E+01  0.25714697681E+01  0.17770000000E+01 0. -1.
         15    1    1    2    0    0 -0.93722648486E+00 -0.92969539612E+00 -0.17457868235E+01  0.28192601240E+01  0.17770000000E+01 0.  1.
</event>
<event>
 6    1  0.3691007E-002  0.4090652E+02  0.7546771E-02  0.1342813E+00
        -11   -1    0    0    0    0  0.00000000000E+00  0.00000000000E+00  0.45600000000E+02  0.45600000000E+02  0.00000000000E+00 0. -1.
         11   -1    0    0    0    0 -0.00000000000E+00 -0.00000000000E+00 -0.45600000000E+02  0.45600000000E+02  0.00000000000E+00 0.  1.
        -11    1    1    2    0    0 -0.10293840875E+01  0.20469548716E+01  0.22087270967E+01  0.31824725032E+01  0.00000000000E+00 0. -1.
         11    1    1    2    0    0  0.55289233534E+00  0.27275641084E+00 -0.42528790367E+02  0.42533258706E+02  0.00000000000E+00 0.  1.
        -15    1    1    2    0    0 -0.29845110359E+01  0.44344418074E+01  0.14174532105E+01  0.58084836981E+01  0.17770000000E+01 0.  1.
         15    1    1    2    0    0  0.34610027881E+01 -0.67541530898E+01  0.38902610060E+02  0.39675785093E+02  0.17770000000E+01 0. -1.
</event>
<event>
 6    1  0.3691007E-002  0.4955418E+02  0.7546771E-02  0.1299805E+00
        -11   -1    0    0    0    0  0.00000000000E+00  0.00000000000E+00  0.45600000000E+02  0.45600000000E+02  0.00000000000E+00 0.  1.
         11   -1    0    0    0    0 -0.00000000000E+00 -0.00000000000E+00 -0.45600000000E+02  0.45600000000E+02  0.00000000000E+00 0.  1.
        -11    1    1    2    0    0 -0.39038128420E+01 -0.61674679597E+01  0.41001185066E+02  0.41645823231E+02  0.00000000000E+00 0.  1.
         11    1    1    2    0    0 -0.20452025632E+01  0.67062802861E+00 -0.25899693030E+02  0.25988972556E+02  0.00000000000E+00 0.  1.
        -15    1    1    2    0    0  0.10811708664E+02  0.13855381915E+01 -0.11847447472E+02  0.16196681787E+02  0.17770000000E+01 0.  1.
         15    1    1    2    0    0 -0.48626932585E+01  0.41113017396E+01 -0.32540445643E+01  0.73685224263E+01  0.17770000000E+01 0. -1.
</event>
<event>
 6    1  0.3691007E-002  0.3255932E+02  0.7546771E-02  0.1397963E+00
        -11   -1    0    0    0    0  0.00000000000E+00  0.00000000000E+00  0.45600000000E+02  0.45600000000E+02  0.00000000000E+00 0.  1.
         11   -1    0    0    0    0 -0.00000000000E+00 -0.00000000000E+00 -0.45600000000E+02  0.45600000000E+02  0.00000000000E+00 0. -1.
        -11    1    1    2    0    0 -0.30818639214E+00 -0.20315866797E+01  0.33701093917E+02  0.33763679517E+02  0.00000000000E+00 0.  1.
         11    1    1    2    0    0 -0.35758047272E+01 -0.48186439743E+01 -0.31303262084E+02  0.31873185066E+02  0.00000000000E+00 0. -1.
        -15    1    1    2    0    0 -0.39510458027E+01  0.35911231519E+00  0.91135867557E+01  0.10097272758E+02  0.17770000000E+01 0. -1.
         15    1    1    2    0    0  0.78350369220E+01  0.64911183388E+01 -0.11511418589E+02  0.15465862659E+02  0.17770000000E+01 0.  1.
</event>
<event>
 6    1  0.3691007E-002  0.4809747E+02  0.7546771E-02  0.1306309E+00
        -11   -1    0    0    0    0  0.00000000000E+00  0.00000000000E+00  0.45600000000E+02  0.45600000000E+02  0.00000000000E+00 0.  1.
         11   -1    0    0    0    0 -0.00000000000E+00 -0.00000000000E+00 -0.45600000000E+02  0.45600000000E+02  0.00000000000E+00 0. -1.
        -11    1    1    2    0    0 -0.43979881959E+00  0.59845171699E+00  0.26760735758E+02  0.26771039310E+02  0.00000000000E+00 0.  1.
         11    1    1    2    0    0  0.32648032363E+01 -0.14875223947E+01 -0.42952959803E+02  0.43102533787E+02  0.00000000000E+00 0. -1.
        -15    1    1    2    0    0 -0.31986111425E+01 -0.31177988079E+01  0.27788094244E+00  0.48152600621E+01  0.17770000000E+01 0. -1.
         15    1    1    2    0    0  0.37360672578E+00  0.40068694856E+01  0.15914343102E+02  0.16511166841E+02  0.17770000000E+01 0.  1.
</event>
<event>
 6    1  0.3691007E-002  0.4711185E+02  0.7546771E-02  0.1310863E+00
        -11   -1    0    0    0    0  0.00000000000E+00  0.00000000000E+00  0.45600000000E+02  0.45600000000E+02  0.00000000000E+00 0. -1.
         11   -1    0    0    0    0 -0.00000000000E+00 -0.00000000000E+00 -0.45600000000E+02  0.45600000000E+02  0.00000000000E+00 0.  1.
        -11    1    1    2    0    0 -0.68298978483E+00 -0.22576811586E+00  0.44082277176E+02  0.44088145882E+02  0.00000000000E+00 0. -1.
         11    1    1    2    0    0  0.20391124757E+00  0.12297354902E+01 -0.41525734816E+02  0.41544439835E+02  0.00000000000E+00 0.  1.
        -15    1    1    2    0    0  0.29665543578E+00  0.78623661257E+00  0.79323348006E-02  0.19656969198E+01  0.17770000000E+01 0. -1.
         15    1    1    2    0    0  0.18242310147E+00 -0.17902039869E+01 -0.25644746952E+01  0.36017173633E+01  0.17770000000E+01 0.  1.
</event>
<event>
 6    1  0.3691007E-002  0.3592291E+02  0.7546771E-02  0.1373647E+00
        -11   -1    0    0    0    0  0.00000000000E+00  0.00000000000E+00  0.45600000000E+02  0.45600000000E+02  0.00000000000E+00 0. -1.
         11   -1    0    0    0    0 -0.00000000000E+00 -0.00000000000E+00 -0.45600000000E+02  0.45600000000E+02  0.00000000000E+00 0.  1.
        -11    1    1    2    0    0  0.20919873128E+01  0.18538376881E+02  0.34772223040E+02  0.39460807435E+02  0.00000000000E+00 0. -1.
         11    1    1    2    0    0 -0.73450170627E+00  0.19424335844E+01 -0.74987275164E+01  0.77809675074E+01  0.00000000000E+00 0.  1.
        -15    1    1    2    0    0 -0.64706179755E+01 -0.80212429058E+01  0.29128814416E+01  0.10855958826E+02  0.17770000000E+01 0. -1.
         15    1    1    2    0    0  0.51131323689E+01 -0.12459567560E+02 -0.30186376965E+02  0.33102266232E+02  0.17770000000E+01 0.  1.
</event>
<event>
 6    1  0.3691007E-002  0.4711106E+02  0.7546771E-02  0.1310867E+00
        -11   -1    0    0    0    0  0.00000000000E+00  0.00000000000E+00  0.45600000000E+02  0.45600000000E+02  0.00000000000E+00 0.  1.
         11   -1    0    0    0    0 -0.00000000000E+00 -0.00000000000E+00 -0.45600000000E+02  0.45600000000E+02  0.00000000000E+00 0. -1.
        -11    1    1    2    0    0 -0.12675080852E+01 -0.11314861152E+01  0.35245676755E+02  0.35286606064E+02  0.00000000000E+00 0.  1.
         11    1    1    2    0    0 -0.14049989731E+00 -0.15404131742E+01 -0.44061797680E+02  0.44088939971E+02  0.00000000000E+00 0. -1.
        -15    1    1    2    0    0  0.18273341598E+00 -0.11217503680E+01  0.66009401005E+01  0.69297802707E+01  0.17770000000E+01 0. -1.
         15    1    1    2    0    0  0.12252745665E+01  0.37936496575E+01  0.22151808251E+01  0.48946736944E+01  0.17770000000E+01 0. -1.
</event>
<event>
 6    1  0.3691007E-002  0.4692368E+02  0.7546771E-02  0.1311747E+00
        -11   -1    0    0    0    0  0.00000000000E+00  0.00000000000E+00  0.45600000000E+02  0.45600000000E+02  0.00000000000E+00 0.  1.
         11   -1    0    0    0    0 -0.00000000000E+00 -0.00000000000E+00 -0.45600000000E+02  0.45600000000E+02  0.00000000000E+00 0.  1.
        -11    1    1    2    0    0 -0.26902674485E+01  0.82880662415E+00  0.44186743630E+02  0.44276322928E+02  0.00000000000E+00 0.  1.
         11    1    1    2    0    0  0.57094695049E+00  0.76815878570E+00 -0.26449899676E+02  0.26467210680E+02  0.00000000000E+00 0.  1.
        -15    1    1    2    0    0  0.10437593772E+01 -0.92422694604E+00 -0.18102347877E+02  0.18242706947E+02  0.17770000000E+01 0.  1.
         15    1    1    2    0    0  0.10755611208E+01 -0.67273846381E+00  0.36550392236E+00  0.22137594455E+01  0.17770000000E+01 0. -1.
</event>
<event>
 6    1  0.3691007E-002  0.4893602E+02  0.7546771E-02  0.1302533E+00
        -11   -1    0    0    0    0  0.00000000000E+00  0.00000000000E+00  0.45600000000E+02  0.45600000000E+02  0.00000000000E+00 0. -1.
         11   -1    0    0    0    0 -0.00000000000E+00 -0.00000000000E+00 -0.45600000000E+02  0.45600000000E+02  0.00000000000E+00 0.  1.
        -11    1    1    2    0    0  0.14282977575E+01 -0.94534750147E+00  0.42229254355E+02  0.42263975674E+02  0.00000000000E+00 0. -1.
         11    1    1    2    0    0 -0.59386327416E+00  0.13631823744E+01 -0.21812211436E+02  0.21862833931E+02  0.00000000000E+00 0.  1.
        -15    1    1    2    0    0  0.73644557205E+01 -0.39851555361E+01 -0.11345294081E+02  0.14212322101E+02  0.17770000000E+01 0. -1.
         15    1    1    2    0    0 -0.81988902039E+01  0.35673206631E+01 -0.90717488380E+01  0.12860868294E+02  0.17770000000E+01 0.  1.
</event>
<event>
 6    1  0.3691007E-002  0.4641614E+02  0.7546771E-02  0.1314155E+00
        -11   -1    0    0    0    0  0.00000000000E+00  0.00000000000E+00  0.45600000000E+02  0.45600000000E+02  0.00000000000E+00 0. -1.
         11   -1    0    0    0    0 -0.00000000000E+00 -0.00000000000E+00 -0.45600000000E+02  0.45600000000E+02  0.00000000000E+00 0.  1.
        -11    1    1    2    0    0  0.10576296895E+00 -0.52372778998E+00  0.35773006131E+02  0.35776996021E+02  0.00000000000E+00 0. -1.
         11    1    1    2    0    0 -0.16527871866E+00  0.77240924782E+00 -0.44776888586E+02  0.44783855177E+02  0.00000000000E+00 0.  1.
        -15    1    1    2    0    0  0.78038418539E+00  0.18819985610E+01  0.33921555962E+01  0.43376683425E+01  0.17770000000E+01 0. -1.
         15    1    1    2    0    0 -0.72086843569E+00 -0.21306800188E+01  0.56117268586E+01  0.63014804594E+01  0.17770000000E+01 0.  1.
</event>
<event>
 6    1  0.3691007E-002  0.4600067E+02  0.7546771E-02  0.1316153E+00
        -11   -1    0    0    0    0  0.00000000000E+00  0.00000000000E+00  0.45600000000E+02  0.45600000000E+02  0.00000000000E+00 0. -1.
         11   -1    0    0    0    0 -0.00000000000E+00 -0.00000000000E+00 -0.45600000000E+02  0.45600000000E+02  0.00000000000E+00 0. -1.
        -11    1    1    2    0    0 -0.20816505691E+01  0.77605636354E+00  0.45144696916E+02  0.45199327342E+02  0.00000000000E+00 0. -1.
         11    1    1    2    0    0 -0.15167402829E+00 -0.48780203448E+00 -0.25196605105E+02  0.25201782965E+02  0.00000000000E+00 0. -1.
        -15    1    1    2    0    0  0.20944507861E+01 -0.15058557841E+01 -0.15956022887E+02  0.16260587970E+02  0.17770000000E+01 0. -1.
         15    1    1    2    0    0  0.13887381137E+00  0.12176014550E+01 -0.39920689237E+01  0.45383017232E+01  0.17770000000E+01 0. -1.
</event>
<event>
 6    1  0.3691007E-002  0.4770405E+02  0.7546771E-02  0.1308112E+00
        -11   -1    0    0    0    0  0.00000000000E+00  0.00000000000E+00  0.45600000000E+02  0.45600000000E+02  0.00000000000E+00 0. -1.
         11   -1    0    0    0    0 -0.00000000000E+00 -0.00000000000E+00 -0.45600000000E+02  0.45600000000E+02  0.00000000000E+00 0. -1.
        -11    1    1    2    0    0  0.68369614761E+00  0.34308366369E+00  0.43489226918E+02  0.43495953889E+02  0.00000000000E+00 0. -1.
         11    1    1    2    0    0 -0.13728388358E+01 -0.10062066547E+01 -0.35118497586E+02  0.35159721430E+02  0.00000000000E+00 0. -1.
        -15    1    1    2    0    0  0.26416642563E+01 -0.29381341047E+01 -0.62405532848E+01  0.75969241381E+01  0.17770000000E+01 0. -1.
         15    1    1    2    0    0 -0.19525215681E+01  0.36012570957E+01 -0.21301760467E+01  0.49474005430E+01  0.17770000000E+01 0.  1.
</event>
<event>
 6    1  0.3691007E-002  0.4655172E+02  0.7546771E-02  0.1313508E+00
        -11   -1    0    0    0    0  0.00000000000E+00  0.00000000000E+00  0.45600000000E+02  0.45600000000E+02  0.00000000000E+00 0. -1.
         11   -1    0    0    0    0 -0.00000000000E+00 -0.00000000000E+00 -0.45600000000E+02  0.45600000000E+02  0.00000000000E+00 0.  1.
        -11    1    1    2    0    0  0.47862948111E+00 -0.64061028293E+00  0.27954931994E+02  0.27966367131E+02  0.00000000000E+00 0. -1.
         11    1    1    2    0    0  0.53666364950E+00  0.38910617468E+00 -0.44643356702E+02  0.44648277784E+02  0.00000000000E+00 0.  1.
        -15    1    1    2    0    0 -0.36469166163E-01 -0.52400436126E+00  0.10037831477E+00  0.18557250273E+01  0.17770000000E+01 0. -1.
         15    1    1    2    0    0 -0.97882396444E+00  0.77550846950E+00  0.16588046393E+02  0.16729630058E+02  0.17770000000E+01 0. -1.
</event>
<event>
 6    1  0.3691007E-002  0.4780065E+02  0.7546771E-02  0.1307667E+00
        -11   -1    0    0    0    0  0.00000000000E+00  0.00000000000E+00  0.45600000000E+02  0.45600000000E+02  0.00000000000E+00 0. -1.
         11   -1    0    0    0    0 -0.00000000000E+00 -0.00000000000E+00 -0.45600000000E+02  0.45600000000E+02  0.00000000000E+00 0.  1.
        -11    1    1    2    0    0 -0.33828711902E+00  0.15583293719E+01  0.35969721455E+02  0.36005050898E+02  0.00000000000E+00 0. -1.
         11    1    1    2    0    0  0.46996011335E+00  0.52669089265E+00 -0.43393611366E+02  0.43399352221E+02  0.00000000000E+00 0.  1.
        -15    1    1    2    0    0 -0.11195965528E+01 -0.34669201803E+01  0.83343381942E-01  0.40543442252E+01  0.17770000000E+01 0. -1.
         15    1    1    2    0    0  0.98792355843E+00  0.13818999157E+01  0.73405465293E+01  0.77412526559E+01  0.17770000000E+01 0. -1.
</event>
<event>
 6    1  0.3691007E-002  0.4810850E+02  0.7546771E-02  0.1306259E+00
        -11   -1    0    0    0    0  0.00000000000E+00  0.00000000000E+00  0.45600000000E+02  0.45600000000E+02  0.00000000000E+00 0.  1.
         11   -1    0    0    0    0 -0.00000000000E+00 -0.00000000000E+00 -0.45600000000E+02  0.45600000000E+02  0.00000000000E+00 0.  1.
        -11    1    1    2    0    0 -0.12203456436E+01 -0.20822926691E+01  0.40800400839E+02  0.40871724883E+02  0.00000000000E+00 0.  1.
         11    1    1    2    0    0 -0.70031483218E-02 -0.74393397191E+00 -0.43085079126E+02  0.43091501831E+02  0.00000000000E+00 0.  1.
        -15    1    1    2    0    0 -0.10282319877E+01 -0.65091442466E+00 -0.59021202500E-01  0.21545679639E+01  0.17770000000E+01 0. -1.
         15    1    1    2    0    0  0.22555807796E+01  0.34771410656E+01  0.23436994892E+01  0.50822053224E+01  0.17770000000E+01 0.  1.
</event>
<event>
 6    1  0.3691007E-002  0.4814519E+02  0.7546771E-02  0.1306092E+00
        -11   -1    0    0    0    0  0.00000000000E+00  0.00000000000E+00  0.45600000000E+02  0.45600000000E+02  0.00000000000E+00 0.  1.
         11   -1    0    0    0    0 -0.00000000000E+00 -0.00000000000E+00 -0.45600000000E+02  0.45600000000E+02  0.00000000000E+00 0.  1.
        -11    1    1    2    0    0 -0.11653905950E+01 -0.52658421770E+01  0.35285839059E+02  0.35695625323E+02  0.00000000000E+00 0.  1.
         11    1    1    2    0    0 -0.66181798677E+00  0.99764137281E+00 -0.43038158937E+02  0.43054807118E+02  0.00000000000E+00 0.  1.
        -15    1    1    2    0    0  0.29490744932E+01  0.52355137892E+00  0.73541678754E+01  0.81371162307E+01  0.17770000000E+01 0.  1.
         15    1    1    2    0    0 -0.11218659114E+01  0.37446494253E+01  0.39815200212E+00  0.43124513282E+01  0.17770000000E+01 0. -1.
</event>
<event>
 6    1  0.3691007E-002  0.4985704E+02  0.7546771E-02  0.1298484E+00
        -11   -1    0    0    0    0  0.00000000000E+00  0.00000000000E+00  0.45600000000E+02  0.45600000000E+02  0.00000000000E+00 0.  1.
         11   -1    0    0    0    0 -0.00000000000E+00 -0.00000000000E+00 -0.45600000000E+02  0.45600000000E+02  0.00000000000E+00 0.  1.
        -11    1    1    2    0    0 -0.42643222599E+01  0.24568246522E+01  0.41048994438E+02  0.41342960418E+02  0.00000000000E+00 0.  1.
         11    1    1    2    0    0  0.18147358728E+01 -0.19631107158E+01 -0.35189108628E+02  0.35290514816E+02  0.00000000000E+00 0.  1.
        -15    1    1    2    0    0 -0.77246482613E+00  0.42585964735E+01 -0.70288200050E+01  0.84436002685E+01  0.17770000000E+01 0. -1.
         15    1    1    2    0    0  0.32220512132E+01 -0.47523104098E+01  0.11689341945E+01  0.61229244975E+01  0.17770000000E+01 0. -1.
</event>
<event>
 6    1  0.3691007E-002  0.4780556E+02  0.7546771E-02  0.1307645E+00
        -11   -1    0    0    0    0  0.00000000000E+00  0.00000000000E+00  0.45600000000E+02  0.45600000000E+02  0.00000000000E+00 0.  1.
         11   -1    0    0    0    0 -0.00000000000E+00 -0.00000000000E+00 -0.45600000000E+02  0.45600000000E+02  0.00000000000E+00 0.  1.
        -11    1    1    2    0    0  0.37114026696E+00  0.68939117707E+00  0.40790206362E+02  0.40797719793E+02  0.00000000000E+00 0.  1.
         11    1    1    2    0    0 -0.25880057679E+01  0.74374213767E+00 -0.43310810279E+02  0.43394437584E+02  0.00000000000E+00 0.  1.
        -15    1    1    2    0    0  0.19884959514E+00 -0.14894418601E+01 -0.10372337438E+01  0.25478542061E+01  0.17770000000E+01 0.  1.
         15    1    1    2    0    0  0.20180159058E+01  0.56308545380E-01  0.35578376612E+01  0.44599884161E+01  0.17770000000E+01 0. -1.
</event>
<event>
 6    1  0.3691007E-002  0.4657955E+02  0.7546771E-02  0.1313376E+00
        -11   -1    0    0    0    0  0.00000000000E+00  0.00000000000E+00  0.45600000000E+02  0.45600000000E+02  0.00000000000E+00 0. -1.
         11   -1    0    0    0    0 -0.00000000000E+00 -0.00000000000E+00 -0.45600000000E+02  0.45600000000E+02  0.00000000000E+00 0.  1.
        -11    1    1    2    0    0 -0.18947542708E+01  0.14239427878E+01  0.44557458943E+02  0.44620453317E+02  0.00000000000E+00 0. -1.
         11    1    1    2    0    0  0.32753437347E+00 -0.14626676762E+01 -0.38485300281E+02  0.38514477969E+02  0.00000000000E+00 0.  1.
        -15    1    1    2    0    0  0.32623317361E+00  0.10223462131E+01 -0.50773951753E+01  0.54853706009E+01  0.17770000000E+01 0. -1.
         15    1    1    2    0    0  0.12409867237E+01 -0.98362132478E+00 -0.99476348585E+00  0.25796981125E+01  0.17770000000E+01 0.  1.
</event>
<event>
 6    1  0.3691007E-002  0.4198083E+02  0.7546771E-02  0.1336829E+00
        -11   -1    0    0    0    0  0.00000000000E+00  0.00000000000E+00  0.45600000000E+02  0.45600000000E+02  0.00000000000E+00 0. -1.
         11   -1    0    0    0    0 -0.00000000000E+00 -0.00000000000E+00 -0.45600000000E+02  0.45600000000E+02  0.00000000000E+00 0. -1.
        -11    1    1    2    0    0  0.11697820299E+01 -0.45810162852E+01  0.41356065040E+02  0.41625451539E+02  0.00000000000E+00 0. -1.
         11    1    1    2    0    0 -0.67180484804E+00 -0.90231771500E-01 -0.42469495232E+02  0.42474904223E+02  0.00000000000E+00 0. -1.
        -15    1    1    2    0    0  0.99252434818E+00  0.37666023830E+01  0.15859613404E+01  0.45656763427E+01  0.17770000000E+01 0. -1.
         15    1    1    2    0    0 -0.14905015301E+01  0.90464567368E+00 -0.47253114888E+00  0.25339678950E+01  0.17770000000E+01 0.  1.
</event>
<event>
 6    1  0.3691007E-002  0.4616730E+02  0.7546771E-02  0.1315348E+00
        -11   -1    0    0    0    0  0.00000000000E+00  0.00000000000E+00  0.45600000000E+02  0.45600000000E+02  0.00000000000E+00 0.  1.
         11   -1    0    0    0    0 -0.00000000000E+00 -0.00000000000E+00 -0.45600000000E+02  0.45600000000E+02  0.00000000000E+00 0.  1.
        -11    1    1    2    0    0  0.74045817688E+00  0.83042882038E+00  0.33296153343E+02  0.33314737246E+02  0.00000000000E+00 0.  1.
         11    1    1    2    0    0 -0.11823029604E+01  0.22135241774E+00 -0.45016629033E+02  0.45032696196E+02  0.00000000000E+00 0.  1.
        -15    1    1    2    0    0  0.17180597977E+01  0.25660080531E-01  0.35493177627E+01  0.43252483731E+01  0.17770000000E+01 0.  1.
         15    1    1    2    0    0 -0.12762150141E+01 -0.10774413186E+01  0.81711579270E+01  0.85273181849E+01  0.17770000000E+01 0.  1.
</event>
<event>
 6    1  0.3691007E-002  0.4649044E+02  0.7546771E-02  0.1313800E+00
        -11   -1    0    0    0    0  0.00000000000E+00  0.00000000000E+00  0.45600000000E+02  0.45600000000E+02  0.00000000000E+00 0. -1.
         11   -1    0    0    0    0 -0.00000000000E+00 -0.00000000000E+00 -0.45600000000E+02  0.45600000000E+02  0.00000000000E+00 0.  1.
        -11    1    1    2    0    0 -0.82850795794E+00  0.11188232827E+01  0.44687874460E+02  0.44709555071E+02  0.00000000000E+00 0. -1.
         11    1    1    2    0    0 -0.23541523359E+01 -0.40868684399E+00 -0.32117248619E+02  0.32206004363E+02  0.00000000000E+00 0.  1.
        -15    1    1    2    0    0  0.25097935394E+01 -0.26557729040E+01 -0.76695238727E+01  0.86793731780E+01  0.17770000000E+01 0. -1.
         15    1    1    2    0    0  0.67286675437E+00  0.19456364653E+01 -0.49011019679E+01  0.56050673880E+01  0.17770000000E+01 0.  1.
</event>
<event>
 6    1  0.3691007E-002  0.4865753E+02  0.7546771E-02  0.1303778E+00
        -11   -1    0    0    0    0  0.00000000000E+00  0.00000000000E+00  0.45600000000E+02  0.45600000000E+02  0.00000000000E+00 0.  1.
         11   -1    0    0    0    0 -0.00000000000E+00 -0.00000000000E+00 -0.45600000000E+02  0.45600000000E+02  0.00000000000E+00 0.  1.
        -11    1    1    2    0    0 -0.28194615855E+01 -0.59827280399E-01  0.42448895868E+02  0.42542469409E+02  0.00000000000E+00 0.  1.
         11    1    1    2    0    0  0.49396704674E+00  0.69953561080E+00 -0.38688545096E+02  0.38698021592E+02  0.00000000000E+00 0.  1.
        -15    1    1    2    0    0  0.20786764134E+01 -0.15054019305E+01  0.21050237574E+01  0.37651008782E+01  0.17770000000E+01 0. -1.
         15    1    1    2    0    0  0.24681812537E+00  0.86569360008E+00 -0.58653745300E+01  0.61944081213E+01  0.17770000000E+01 0.  1.
</event>
<event>
 6    1  0.3691007E-002  0.4817699E+02  0.7546771E-02  0.1305948E+00
        -11   -1    0    0    0    0  0.00000000000E+00  0.00000000000E+00  0.45600000000E+02  0.45600000000E+02  0.00000000000E+00 0. -1.
         11   -1    0    0    0    0 -0.00000000000E+00 -0.00000000000E+00 -0.45600000000E+02  0.45600000000E+02  0.00000000000E+00 0. -1.
        -11    1    1    2    0    0  0.33523563654E+01 -0.81377503053E+01  0.17437324052E+02  0.19532576464E+02  0.00000000000E+00 0. -1.
         11    1    1    2    0    0 -0.14132389221E+01  0.15856494608E+01 -0.42970543682E+02  0.43023007250E+02  0.00000000000E+00 0. -1.
        -15    1    1    2    0    0  0.70914635699E+00  0.16252063342E+00 -0.20760237779E+00  0.19313542552E+01  0.17770000000E+01 0.  1.
         15    1    1    2    0    0 -0.26482638004E+01  0.63895802111E+01  0.25740822008E+02  0.26713062031E+02  0.17770000000E+01 0. -1.
</event>
<event>
 6    1  0.3691007E-002  0.4596403E+02  0.7546771E-02  0.1316330E+00
        -11   -1    0    0    0    0  0.00000000000E+00  0.00000000000E+00  0.45600000000E+02  0.45600000000E+02  0.00000000000E+00 0. -1.
         11   -1    0    0    0    0 -0.00000000000E+00 -0.00000000000E+00 -0.45600000000E+02  0.45600000000E+02  0.00000000000E+00 0.  1.
        -11    1    1    2    0    0  0.15381687443E+01 -0.10254870249E+01  0.49998262030E+01  0.53306518161E+01  0.00000000000E+00 0. -1.
         11    1    1    2    0    0  0.71990402617E+00  0.39799046520E+00 -0.45228494486E+02  0.45235974309E+02  0.00000000000E+00 0.  1.
        -15    1    1    2    0    0 -0.15446071986E+01  0.20628294230E+01  0.27861348183E+02  0.28036646165E+02  0.17770000000E+01 0. -1.
         15    1    1    2    0    0 -0.71346557182E+00 -0.14353328633E+01  0.12367320099E+02  0.12596727710E+02  0.17770000000E+01 0.  1.
</event>
<event>
 6    1  0.3691007E-002  0.5111731E+02  0.7546771E-02  0.1293104E+00
        -11   -1    0    0    0    0  0.00000000000E+00  0.00000000000E+00  0.45600000000E+02  0.45600000000E+02  0.00000000000E+00 0.  1.
         11   -1    0    0    0    0 -0.00000000000E+00 -0.00000000000E+00 -0.45600000000E+02  0.45600000000E+02  0.00000000000E+00 0.  1.
        -11    1    1    2    0    0  0.12667518208E+01  0.73488440039E+00  0.36395640832E+02  0.36425092819E+02  0.00000000000E+00 0.  1.
         11    1    1    2    0    0 -0.96510753637E+00  0.15710099663E-01 -0.40071069251E+02  0.40082692902E+02  0.00000000000E+00 0.  1.
        -15    1    1    2    0    0 -0.91972083939E+00 -0.13226635780E+00 -0.52132351812E+01  0.55856003138E+01  0.17770000000E+01 0. -1.
         15    1    1    2    0    0  0.61807655496E+00 -0.61832814225E+00  0.88886635999E+01  0.91066139652E+01  0.17770000000E+01 0.  1.
</event>
<event>
 6    1  0.3691007E-002  0.4608868E+02  0.7546771E-02  0.1315727E+00
        -11   -1    0    0    0    0  0.00000000000E+00  0.00000000000E+00  0.45600000000E+02  0.45600000000E+02  0.00000000000E+00 0. -1.
         11   -1    0    0    0    0 -0.00000000000E+00 -0.00000000000E+00 -0.45600000000E+02  0.45600000000E+02  0.00000000000E+00 0.  1.
        -11    1    1    2    0    0  0.51134074604E+00  0.16058116509E-01  0.20126345545E+02  0.20132846600E+02  0.00000000000E+00 0. -1.
         11    1    1    2    0    0  0.86466398497E+00 -0.18273401321E+00 -0.45102666384E+02  0.45111323972E+02  0.00000000000E+00 0.  1.
        -15    1    1    2    0    0 -0.22297669147E+01 -0.39682083909E-01  0.22930845693E+02  0.23107463044E+02  0.17770000000E+01 0. -1.
         15    1    1    2    0    0  0.85376218372E+00  0.20635798061E+00  0.20454751462E+01  0.28483663838E+01  0.17770000000E+01 0. -1.
</event>
<event>
 6    1  0.3691007E-002  0.4637978E+02  0.7546771E-02  0.1314329E+00
        -11   -1    0    0    0    0  0.00000000000E+00  0.00000000000E+00  0.45600000000E+02  0.45600000000E+02  0.00000000000E+00 0. -1.
         11   -1    0    0    0    0 -0.00000000000E+00 -0.00000000000E+00 -0.45600000000E+02  0.45600000000E+02  0.00000000000E+00 0. -1.
        -11    1    1    2    0    0  0.52952227180E+00 -0.12563404130E+01  0.30307488709E+02  0.30338138653E+02  0.00000000000E+00 0. -1.
         11    1    1    2    0    0  0.62184428432E+00 -0.11566703952E+01 -0.44800976300E+02  0.44820219256E+02  0.00000000000E+00 0. -1.
        -15    1    1    2    0    0 -0.25888547294E+01  0.27907674023E+01  0.11585798022E+02  0.12323919682E+02  0.17770000000E+01 0.  1.
         15    1    1    2    0    0  0.14374881733E+01 -0.37775659418E+00  0.29076895680E+01  0.37177224098E+01  0.17770000000E+01 0. -1.
</event>
<event>
 6    1  0.3691007E-002  0.3888703E+02  0.7546771E-02  0.1354659E+00
        -11   -1    0    0    0    0  0.00000000000E+00  0.00000000000E+00  0.45600000000E+02  0.45600000000E+02  0.00000000000E+00 0. -1.
         11   -1    0    0    0    0 -0.00000000000E+00 -0.00000000000E+00 -0.45600000000E+02  0.45600000000E+02  0.00000000000E+00 0.  1.
        -11    1    1    2    0    0  0.34821729413E+01 -0.13134139691E+01  0.38045984787E+02  0.38227575689E+02  0.00000000000E+00 0. -1.
         11    1    1    2    0    0  0.39839923454E+01  0.54452116249E+00 -0.39722814555E+02  0.39925814888E+02  0.00000000000E+00 0.  1.
        -15    1    1    2    0    0 -0.19652135088E+01  0.31633777095E+00 -0.40803984294E+01  0.48753988620E+01  0.17770000000E+01 0. -1.
         15    1    1    2    0    0 -0.55009517779E+01  0.45255503566E+00  0.57572281967E+01  0.81712105610E+01  0.17770000000E+01 0. -1.
</event>
<event>
 6    1  0.3691007E-002  0.4790493E+02  0.7546771E-02  0.1307189E+00
        -11   -1    0    0    0    0  0.00000000000E+00  0.00000000000E+00  0.45600000000E+02  0.45600000000E+02  0.00000000000E+00 0. -1.
         11   -1    0    0    0    0 -0.00000000000E+00 -0.00000000000E+00 -0.45600000000E+02  0.45600000000E+02  0.00000000000E+00 0. -1.
        -11    1    1    2    0    0 -0.49974035257E+01 -0.43893158059E+01  0.34309526526E+02  0.34948301041E+02  0.00000000000E+00 0. -1.
         11    1    1    2    0    0 -0.15857454889E-02  0.23489262678E+01 -0.43231302614E+02  0.43295068805E+02  0.00000000000E+00 0. -1.
        -15    1    1    2    0    0  0.25493448164E+00 -0.18595674559E+01  0.98704324736E+00  0.27667609375E+01  0.17770000000E+01 0.  1.
         15    1    1    2    0    0  0.47440547895E+01  0.38999569940E+01  0.79347328405E+01  0.10189869217E+02  0.17770000000E+01 0. -1.
</event>
<event>
 6    1  0.3691007E-002  0.4840417E+02  0.7546771E-02  0.1304918E+00
        -11   -1    0    0    0    0  0.00000000000E+00  0.00000000000E+00  0.45600000000E+02  0.45600000000E+02  0.00000000000E+00 0.  1.
         11   -1    0    0    0    0 -0.00000000000E+00 -0.00000000000E+00 -0.45600000000E+02  0.45600000000E+02  0.00000000000E+00 0. -1.
        -11    1    1    2    0    0 -0.22924250186E+01  0.20946390427E+00  0.42733875276E+02  0.42795831382E+02  0.00000000000E+00 0.  1.
         11    1    1    2    0    0 -0.32993203203E+01  0.38834835245E+00 -0.38140238303E+02  0.38284645836E+02  0.00000000000E+00 0. -1.
        -15    1    1    2    0    0  0.31672491176E+01 -0.17379268576E+01 -0.54656407874E+01  0.67884324371E+01  0.17770000000E+01 0. -1.
         15    1    1    2    0    0  0.24244962213E+01  0.11401146009E+01  0.87200381435E+00  0.33310903444E+01  0.17770000000E+01 0.  1.
</event>
<event>
 6    1  0.3691007E-002  0.4690468E+02  0.7546771E-02  0.1311836E+00
        -11   -1    0    0    0    0  0.00000000000E+00  0.00000000000E+00  0.45600000000E+02  0.45600000000E+02  0.00000000000E+00 0.  1.
         11   -1    0    0    0    0 -0.00000000000E+00 -0.00000000000E+00 -0.45600000000E+02  0.45600000000E+02  0.00000000000E+00 0. -1.
        -11    1    1    2    0    0  0.36126566191E+00  0.20823119791E+01  0.44244875121E+02  0.44295321542E+02  0.00000000000E+00 0.  1.
         11    1    1    2    0    0  0.75709100242E+00  0.11118693989E-02 -0.41762562993E+02  0.41769424891E+02  0.00000000000E+00 0. -1.
        -15    1    1    2    0    0 -0.10337754806E+01 -0.14871965279E+01 -0.19026914086E+01  0.31714994645E+01  0.17770000000E+01 0.  1.
         15    1    1    2    0    0 -0.84581183756E-01 -0.59622732061E+00 -0.57962071975E+00  0.19637541020E+01  0.17770000000E+01 0. -1.
</event>
<event>
 6    1  0.3691007E-002  0.5377846E+02  0.7546771E-02  0.1282305E+00
        -11   -1    0    0    0    0  0.00000000000E+00  0.00000000000E+00  0.45600000000E+02  0.45600000000E+02  0.00000000000E+00 0.  1.
         11   -1    0    0    0    0 -0.00000000000E+00 -0.00000000000E+00 -0.45600000000E+02  0.45600000000E+02  0.00000000000E+00 0.  1.
        -11    1    1    2    0    0 -0.26112510922E+00 -0.68498620547E+00  0.37414361399E+02  0.37421542343E+02  0.00000000000E+00 0.  1.
         11    1    1    2    0    0 -0.73587422940E-01  0.14387090512E+01 -0.33104156452E+02  0.33135486615E+02  0.00000000000E+00 0.  1.
        -15    1    1    2    0    0 -0.40669192960E+01 -0.34949735904E+00  0.70422482011E+01  0.83314446340E+01  0.17770000000E+01 0. -1.
         15    1    1    2    0    0  0.44016318282E+01 -0.40422548671E+00 -0.11352453149E+02  0.12311526408E+02  0.17770000000E+01 0.  1.
</event>
<event>
 6    1  0.3691007E-002  0.3703210E+02  0.7546771E-02  0.1366300E+00
        -11   -1    0    0    0    0  0.00000000000E+00  0.00000000000E+00  0.45600000000E+02  0.45600000000E+02  0.00000000000E+00 0. -1.
         11   -1    0    0    0    0 -0.00000000000E+00 -0.00000000000E+00 -0.45600000000E+02  0.45600000000E+02  0.00000000000E+00 0. -1.
        -11    1    1    2    0    0 -0.65277528824E+01 -0.28880364877E+01  0.34722845584E+02  0.35448953693E+02  0.00000000000E+00 0. -1.
         11    1    1    2    0    0  0.18326799645E+01 -0.25733402311E+00 -0.38904131938E+02  0.38948124711E+02  0.00000000000E+00 0. -1.
        -15    1    1    2    0    0 -0.16419362586E+01  0.23186254485E+01 -0.46663217356E+01  0.57449339585E+01  0.17770000000E+01 0.  1.
         15    1    1    2    0    0  0.63370091765E+01  0.82674506227E+00  0.88476080894E+01  0.11057987638E+02  0.17770000000E+01 0. -1.
</event>
<event>
 6    1  0.3691007E-002  0.4668399E+02  0.7546771E-02  0.1312880E+00
        -11   -1    0    0    0    0  0.00000000000E+00  0.00000000000E+00  0.45600000000E+02  0.45600000000E+02  0.00000000000E+00 0. -1.
         11   -1    0    0    0    0 -0.00000000000E+00 -0.00000000000E+00 -0.45600000000E+02  0.45600000000E+02  0.00000000000E+00 0. -1.
        -11    1    1    2    0    0  0.31319168942E+00 -0.17492796274E+01  0.44480520993E+02  0.44516006290E+02  0.00000000000E+00 0. -1.
         11    1    1    2    0    0  0.23955106376E+01 -0.20110597931E+00 -0.37337296000E+02  0.37414603932E+02  0.00000000000E+00 0. -1.
        -15    1    1    2    0    0 -0.31334715738E+01  0.15364538802E+01 -0.56457765834E+01  0.68710884770E+01  0.17770000000E+01 0. -1.
         15    1    1    2    0    0  0.42476924676E+00  0.41393172652E+00 -0.14974484097E+01  0.23983013003E+01  0.17770000000E+01 0.  1.
</event>
<event>
 6    1  0.3691007E-002  0.4096086E+02  0.7546771E-02  0.1342505E+00
        -11   -1    0    0    0    0  0.00000000000E+00  0.00000000000E+00  0.45600000000E+02  0.45600000000E+02  0.00000000000E+00 0. -1.
         11   -1    0    0    0    0 -0.00000000000E+00 -0.00000000000E+00 -0.45600000000E+02  0.45600000000E+02  0.00000000000E+00 0.  1.
        -11    1    1    2    0    0 -0.40954078696E+00 -0.14849337236E+01  0.41055933081E+02  0.41084819496E+02  0.00000000000E+00 0. -1.
         11    1    1    2    0    0 -0.33597467123E+01  0.14038941036E+00 -0.40796647192E+02  0.40934997609E+02  0.00000000000E+00 0.  1.
        -15    1    1    2    0    0  0.11134420678E+01  0.23855595248E+01 -0.33485092908E+01  0.46152888268E+01  0.17770000000E+01 0.  1.
         15    1    1    2    0    0  0.26558454316E+01 -0.10410152116E+01  0.30892234017E+01  0.45648940681E+01  0.17770000000E+01 0. -1.
</event>
<event>
 6    1  0.3691007E-002  0.4208268E+02  0.7546771E-02  0.1336273E+00
        -11   -1    0    0    0    0  0.00000000000E+00  0.00000000000E+00  0.45600000000E+02  0.45600000000E+02  0.00000000000E+00 0. -1.
         11   -1    0    0    0    0 -0.00000000000E+00 -0.00000000000E+00 -0.45600000000E+02  0.45600000000E+02  0.00000000000E+00 0.  1.
        -11    1    1    2    0    0  0.61994117205E+00  0.24931270017E+01  0.41609066714E+02  0.41688301022E+02  0.00000000000E+00 0. -1.
         11    1    1    2    0    0  0.30989112441E+00  0.69936571250E+00 -0.42540987664E+02  0.42547864533E+02  0.00000000000E+00 0.  1.
        -15    1    1    2    0    0 -0.21566960973E+01  0.19855713550E+00  0.90321066713E+00  0.29435151607E+01  0.17770000000E+01 0. -1.
         15    1    1    2    0    0  0.12268638008E+01 -0.33910498497E+01  0.28710283152E-01  0.40203192845E+01  0.17770000000E+01 0.  1.
</event>
<event>
 6    1  0.3691007E-002  0.4638737E+02  0.7546771E-02  0.1314292E+00
        -11   -1    0    0    0    0  0.00000000000E+00  0.00000000000E+00  0.45600000000E+02  0.45600000000E+02  0.00000000000E+00 0. -1.
         11   -1    0    0    0    0 -0.00000000000E+00 -0.00000000000E+00 -0.45600000000E+02  0.45600000000E+02  0.00000000000E+00 0. -1.
        -11    1    1    2    0    0 -0.92304513621E+00  0.32107537619E-01  0.29541290030E+02  0.29555724655E+02  0.00000000000E+00 0. -1.
         11    1    1    2    0    0  0.32167183712E+00 -0.65353047023E+00 -0.44806712168E+02  0.44812632484E+02  0.00000000000E+00 0. -1.
        -15    1    1    2    0    0 -0.11212381570E+01  0.66859225130E+00  0.11234791366E+01  0.24746969458E+01  0.17770000000E+01 0.  1.
         15    1    1    2    0    0  0.17226114561E+01 -0.47169318689E-01  0.14141943001E+02  0.14356945916E+02  0.17770000000E+01 0.  1.
</event>
<event>
 6    1  0.3691007E-002  0.4640668E+02  0.7546771E-02  0.1314200E+00
        -11   -1    0    0    0    0  0.00000000000E+00  0.00000000000E+00  0.45600000000E+02  0.45600000000E+02  0.00000000000E+00 0.  1.
         11   -1    0    0    0    0 -0.00000000000E+00 -0.00000000000E+00 -0.45600000000E+02  0.45600000000E+02  0.00000000000E+00 0. -1.
        -11    1    1    2    0    0 -0.56574593773E+00  0.84210789999E+00  0.44781829631E+02  0.44793319583E+02  0.00000000000E+00 0.  1.
         11    1    1    2    0    0  0.80763228585E+00  0.82279770126E+00 -0.38461381307E+02  0.38478657955E+02  0.00000000000E+00 0. -1.
        -15    1    1    2    0    0 -0.96442187355E+00 -0.11789664872E+01 -0.16733421658E+01  0.28771295647E+01  0.17770000000E+01 0. -1.
         15    1    1    2    0    0  0.72253552544E+00 -0.48593911405E+00 -0.46471061586E+01  0.50508928970E+01  0.17770000000E+01 0.  1.
</event>
<event>
 6    1  0.3691007E-002  0.4643368E+02  0.7546771E-02  0.1314071E+00
        -11   -1    0    0    0    0  0.00000000000E+00  0.00000000000E+00  0.45600000000E+02  0.45600000000E+02  0.00000000000E+00 0. -1.
         11   -1    0    0    0    0 -0.00000000000E+00 -0.00000000000E+00 -0.45600000000E+02  0.45600000000E+02  0.00000000000E+00 0. -1.
        -11    1    1    2    0    0 -0.12278637793E+01 -0.12116238286E+01  0.50710712180E+01  0.53564395881E+01  0.00000000000E+00 0. -1.
         11    1    1    2    0    0 -0.26483689944E+01  0.30377876674E+01 -0.44584542887E+02  0.44766320785E+02  0.00000000000E+00 0. -1.
        -15    1    1    2    0    0  0.41508026466E+01 -0.37261274601E+01  0.36963176029E+02  0.37423886752E+02  0.17770000000E+01 0. -1.
         15    1    1    2    0    0 -0.27456987295E+00  0.18999636213E+01  0.25502956400E+01  0.36533528749E+01  0.17770000000E+01 0.  1.
</event>
<event>
 6    1  0.3691007E-002  0.4823410E+02  0.7546771E-02  0.1305688E+00
        -11   -1    0    0    0    0  0.00000000000E+00  0.00000000000E+00  0.45600000000E+02  0.45600000000E+02  0.00000000000E+00 0. -1.
         11   -1    0    0    0    0 -0.00000000000E+00 -0.00000000000E+00 -0.45600000000E+02  0.45600000000E+02  0.00000000000E+00 0.  1.
        -11    1    1    2    0    0 -0.12193894834E+01  0.61210207941E+00  0.38756849150E+02  0.38780857851E+02  0.00000000000E+00 0. -1.
         11    1    1    2    0    0  0.56079458306E+00 -0.10942294091E+01 -0.42948302946E+02  0.42965899903E+02  0.00000000000E+00 0.  1.
        -15    1    1    2    0    0  0.64344565301E+00 -0.35181952973E+01  0.12705889370E+01  0.41909242066E+01  0.17770000000E+01 0.  1.
         15    1    1    2    0    0  0.15149247354E-01  0.40003226270E+01  0.29208648590E+01  0.52623180391E+01  0.17770000000E+01 0. -1.
</event>
<event>
 6    1  0.3691007E-002  0.4773098E+02  0.7546771E-02  0.1307988E+00
        -11   -1    0    0    0    0  0.00000000000E+00  0.00000000000E+00  0.45600000000E+02  0.45600000000E+02  0.00000000000E+00 0.  1.
         11   -1    0    0    0    0 -0.00000000000E+00 -0.00000000000E+00 -0.45600000000E+02  0.45600000000E+02  0.00000000000E+00 0. -1.
        -11    1    1    2    0    0 -0.67046535231E+00  0.83255650851E+00  0.43455878725E+02  0.43469024258E+02  0.00000000000E+00 0.  1.
         11    1    1    2    0    0 -0.10037300517E+01  0.17077474041E+01 -0.32246135555E+02  0.32306920829E+02  0.00000000000E+00 0. -1.
        -15    1    1    2    0    0 -0.62553925747E+00 -0.17539011124E+01  0.10649106243E+01  0.27855398243E+01  0.17770000000E+01 0.  1.
         15    1    1    2    0    0  0.22997346615E+01 -0.78640280016E+00 -0.12274653794E+02  0.12638515089E+02  0.17770000000E+01 0. -1.
</event>
<event>
 6    1  0.3691007E-002  0.4773438E+02  0.7546771E-02  0.1307972E+00
        -11   -1    0    0    0    0  0.00000000000E+00  0.00000000000E+00  0.45600000000E+02  0.45600000000E+02  0.00000000000E+00 0.  1.
         11   -1    0    0    0    0 -0.00000000000E+00 -0.00000000000E+00 -0.45600000000E+02  0.45600000000E+02  0.00000000000E+00 0.  1.
        -11    1    1    2    0    0 -0.42529642648E+00 -0.31761061783E+00  0.36394604089E+02  0.36398474698E+02  0.00000000000E+00 0.  1.
         11    1    1    2    0    0 -0.11636241506E+00 -0.63819965703E+00 -0.43460775702E+02  0.43465617028E+02  0.00000000000E+00 0.  1.
        -15    1    1    2    0    0 -0.21589570332E+01  0.34749581098E+01  0.21986781597E+01  0.49727601979E+01  0.17770000000E+01 0. -1.
         15    1    1    2    0    0  0.27006158748E+01 -0.25191478349E+01  0.48674934534E+01  0.63631480759E+01  0.17770000000E+01 0.  1.
</event>
<event>
 6    1  0.3691007E-002  0.4699103E+02  0.7546771E-02  0.1311430E+00
        -11   -1    0    0    0    0  0.00000000000E+00  0.00000000000E+00  0.45600000000E+02  0.45600000000E+02  0.00000000000E+00 0. -1.
         11   -1    0    0    0    0 -0.00000000000E+00 -0.00000000000E+00 -0.45600000000E+02  0.45600000000E+02  0.00000000000E+00 0. -1.
        -11    1    1    2    0    0 -0.25090306345E+01 -0.12724587639E+01  0.44119369510E+02  0.44208971397E+02  0.00000000000E+00 0. -1.
         11    1    1    2    0    0 -0.37246029828E+00  0.71574564466E+00 -0.39007055408E+02  0.39015399396E+02  0.00000000000E+00 0. -1.
        -15    1    1    2    0    0  0.11144071827E+01  0.14702307563E+01 -0.44495730516E+00  0.25998457356E+01  0.17770000000E+01 0.  1.
         15    1    1    2    0    0  0.17670837500E+01 -0.91351763705E+00 -0.46673567972E+01  0.53757834708E+01  0.17770000000E+01 0.  1.
</event>
<event>
 6    1  0.3691007E-002  0.4579603E+02  0.7546771E-02  0.1317145E+00
        -11   -1    0    0    0    0  0.00000000000E+00  0.00000000000E+00  0.45600000000E+02  0.45600000000E+02  0.00000000000E+00 0. -1.
         11   -1    0    0    0    0 -0.00000000000E+00 -0.00000000000E+00 -0.45600000000E+02  0.45600000000E+02  0.00000000000E+00 0.  1.
        -11    1    1    2    0    0 -0.18084350725E+01  0.21489200261E+00  0.45367429627E+02  0.45403967744E+02  0.00000000000E+00 0. -1.
         11    1    1    2    0    0  0.10110285132E+00  0.50994909518E+00 -0.22438760666E+02  0.22444782246E+02  0.00000000000E+00 0.  1.
        -15    1    1    2    0    0  0.74444707762E+00 -0.90929015274E+00 -0.15671336945E+02  0.15815484207E+02  0.17770000000E+01 0.  1.
         15    1    1    2    0    0  0.96288514357E+00  0.18444905494E+00 -0.72573320153E+01  0.75357658028E+01  0.17770000000E+01 0. -1.
</event>
<event>
 6    1  0.3691007E-002  0.3917515E+02  0.7546771E-02  0.1352918E+00
        -11   -1    0    0    0    0  0.00000000000E+00  0.00000000000E+00  0.45600000000E+02  0.45600000000E+02  0.00000000000E+00 0.  1.
         11   -1    0    0    0    0 -0.00000000000E+00 -0.00000000000E+00 -0.45600000000E+02  0.45600000000E+02  0.00000000000E+00 0.  1.
        -11    1    1    2    0    0  0.45688721116E+01  0.17341697488E+01  0.40647181598E+02  0.40939898741E+02  0.00000000000E+00 0.  1.
         11    1    1    2    0    0  0.15182908928E+01  0.11613994383E+01 -0.37706374081E+02  0.37754797076E+02  0.00000000000E+00 0.  1.
        -15    1    1    2    0    0  0.24301073859E+01 -0.34823371896E+00 -0.12738899692E+01  0.32874326280E+01  0.17770000000E+01 0.  1.
         15    1    1    2    0    0 -0.85172703903E+01 -0.25473354681E+01 -0.16669175477E+01  0.92178715548E+01  0.17770000000E+01 0.  1.
</event>
<event>
 6    1  0.3691007E-002  0.3654546E+02  0.7546771E-02  0.1369486E+00
        -11   -1    0    0    0    0  0.00000000000E+00  0.00000000000E+00  0.45600000000E+02  0.45600000000E+02  0.00000000000E+00 0. -1.
         11   -1    0    0    0    0 -0.00000000000E+00 -0.00000000000E+00 -0.45600000000E+02  0.45600000000E+02  0.00000000000E+00 0. -1.
        -11    1    1    2    0    0 -0.57672826566E+01 -0.10753134507E+02  0.30760200857E+02  0.33092014259E+02  0.00000000000E+00 0. -1.
         11    1    1    2    0    0  0.20288945199E+01  0.26892862002E+00 -0.26632189259E+02  0.26710713961E+02  0.00000000000E+00 0. -1.
        -15    1    1    2    0    0 -0.39979741005E+01  0.30942259698E+01  0.11318878105E+02  0.12523288778E+02  0.17770000000E+01 0. -1.
         15    1    1    2    0    0  0.77363622373E+01  0.73899799174E+01 -0.15446889703E+02  0.18873983001E+02  0.17770000000E+01 0.  1.
</event>
<event>
 6    1  0.3691007E-002  0.5029030E+02  0.7546771E-02  0.1296614E+00
        -11   -1    0    0    0    0  0.00000000000E+00  0.00000000000E+00  0.45600000000E+02  0.45600000000E+02  0.00000000000E+00 0.  1.
         11   -1    0    0    0    0 -0.00000000000E+00 -0.00000000000E+00 -0.45600000000E+02  0.45600000000E+02  0.00000000000E+00 0.  1.
        -11    1    1    2    0    0  0.24126652355E+01 -0.34785265572E+01  0.34032687214E+02  0.34294969012E+02  0.00000000000E+00 0.  1.
         11    1    1    2    0    0  0.78753376954E+00 -0.27335613198E+00 -0.40901210027E+02  0.40909704407E+02  0.00000000000E+00 0.  1.
        -15    1    1    2    0    0 -0.67833840503E+01  0.20382772619E+00  0.78839403862E+01  0.10553202828E+02  0.17770000000E+01 0. -1.
         15    1    1    2    0    0  0.35831850452E+01  0.35480549629E+01 -0.10154175731E+01  0.54421237524E+01  0.17770000000E+01 0.  1.
</event>
<event>
 6    1  0.3691007E-002  0.4663421E+02  0.7546771E-02  0.1313116E+00
        -11   -1    0    0    0    0  0.00000000000E+00  0.00000000000E+00  0.45600000000E+02  0.45600000000E+02  0.00000000000E+00 0. -1.
         11   -1    0    0    0    0 -0.00000000000E+00 -0.00000000000E+00 -0.45600000000E+02  0.45600000000E+02  0.00000000000E+00 0. -1.
        -11    1    1    2    0    0 -0.10124804458E+01 -0.23414687636E+01  0.44492722332E+02  0.44565793308E+02  0.00000000000E+00 0. -1.
         11    1    1    2    0    0  0.19334146176E+01  0.98053691472E+00 -0.28758815035E+02  0.28840405457E+02  0.00000000000E+00 0. -1.
        -15    1    1    2    0    0 -0.20114585390E+01 -0.21129714530E+01 -0.11219241243E+02  0.11727732811E+02  0.17770000000E+01 0. -1.
         15    1    1    2    0    0  0.10905243672E+01  0.34739033018E+01 -0.45146660542E+01  0.60660684242E+01  0.17770000000E+01 0. -1.
</event>
<event>
 6    1  0.3691007E-002  0.4708994E+02  0.7546771E-02  0.1310966E+00
        -11   -1    0    0    0    0  0.00000000000E+00  0.00000000000E+00  0.45600000000E+02  0.45600000000E+02  0.00000000000E+00 0. -1.
         11   -1    0    0    0    0 -0.00000000000E+00 -0.00000000000E+00 -0.45600000000E+02  0.45600000000E+02  0.00000000000E+00 0.  1.
        -11    1    1    2    0    0 -0.53872861884E-01  0.12025450862E+01  0.27084064823E+02  0.27110801986E+02  0.00000000000E+00 0. -1.
         11    1    1    2    0    0  0.24755565662E+01  0.10948786105E+01 -0.44026927588E+02  0.44110061124E+02  0.00000000000E+00 0.  1.
        -15    1    1    2    0    0 -0.27035689786E+01 -0.57081670884E+01  0.12327168080E+02  0.13964571551E+02  0.17770000000E+01 0.  1.
         15    1    1    2    0    0  0.28188527433E+00  0.34107433917E+01  0.46156946850E+01  0.60145653390E+01  0.17770000000E+01 0. -1.
</event>
<event>
 6    1  0.3691007E-002  0.5635765E+02  0.7546771E-02  0.1272500E+00
        -11   -1    0    0    0    0  0.00000000000E+00  0.00000000000E+00  0.45600000000E+02  0.45600000000E+02  0.00000000000E+00 0.  1.
         11   -1    0    0    0    0 -0.00000000000E+00 -0.00000000000E+00 -0.45600000000E+02  0.45600000000E+02  0.00000000000E+00 0.  1.
        -11    1    1    2    0    0 -0.34820213981E+01 -0.97098603756E+01  0.23389248595E+02  0.25562918679E+02  0.00000000000E+00 0.  1.
         11    1    1    2    0    0  0.16912552677E+01  0.54262078826E+01 -0.34375644694E+02  0.34842345279E+02  0.00000000000E+00 0.  1.
        -15    1    1    2    0    0  0.65035835307E+01  0.71957835726E+01  0.18695520237E+02  0.21136605827E+02  0.17770000000E+01 0.  1.
         15    1    1    2    0    0 -0.47128174003E+01 -0.29121310796E+01 -0.77091241380E+01  0.96581302149E+01  0.17770000000E+01 0. -1.
</event>
<event>
 6    1  0.3857061E-002  0.3829628E+02  0.7546771E-02  0.1358283E+00
        -11   -1    0    0    0    0  0.00000000000E+00  0.00000000000E+00  0.45600000000E+02  0.45600000000E+02  0.00000000000E+00 0. -1.
         11   -1    0    0    0    0 -0.00000000000E+00 -0.00000000000E+00 -0.45600000000E+02  0.45600000000E+02  0.00000000000E+00 0.  1.
        -11    1    1    2    0    0 -0.17173670632E+01 -0.30273873627E+01  0.40059202929E+02  0.40210125133E+02  0.00000000000E+00 0. -1.
         11    1    1    2    0    0  0.92579749528E+00 -0.52427377561E+01 -0.36526694788E+02  0.36912637840E+02  0.00000000000E+00 0.  1.
        -15    1    1    2    0    0 -0.11642396522E+01  0.85327531624E+01 -0.58427631847E+01  0.10557411668E+02  0.17770000000E+01 0.  1.
         15    1    1    2    0    0  0.19558092201E+01 -0.26262804356E+00  0.23102550435E+01  0.35198253594E+01  0.17770000000E+01 0. -1.
</event>
<event>
 6    1  0.3691007E-002  0.4693912E+02  0.7546771E-02  0.1311674E+00
        -11   -1    0    0    0    0  0.00000000000E+00  0.00000000000E+00  0.45600000000E+02  0.45600000000E+02  0.00000000000E+00 0. -1.
         11   -1    0    0    0    0 -0.00000000000E+00 -0.00000000000E+00 -0.45600000000E+02  0.45600000000E+02  0.00000000000E+00 0. -1.
        -11    1    1    2    0    0  0.63838401946E+00 -0.97740270293E+00  0.44245486320E+02  0.44260884648E+02  0.00000000000E+00 0. -1.
         11    1    1    2    0    0  0.30837339732E-01  0.16533781303E+01 -0.28281973367E+02  0.28330277579E+02  0.00000000000E+00 0. -1.
        -15    1    1    2    0    0 -0.10971732383E+01  0.28962378099E+01 -0.20264732251E+01  0.41056431041E+01  0.17770000000E+01 0. -1.
         15    1    1    2    0    0  0.42795187910E+00 -0.35722132373E+01 -0.13937039728E+02  0.14503194669E+02  0.17770000000E+01 0. -1.
</event>
<event>
 6    1  0.3691007E-002  0.4782127E+02  0.7546771E-02  0.1307573E+00
        -11   -1    0    0    0    0  0.00000000000E+00  0.00000000000E+00  0.45600000000E+02  0.45600000000E+02  0.00000000000E+00 0. -1.
         11   -1    0    0    0    0 -0.00000000000E+00 -0.00000000000E+00 -0.45600000000E+02  0.45600000000E+02  0.00000000000E+00 0.  1.
        -11    1    1    2    0    0  0.88321436998E+00 -0.21657926504E+01  0.43315623192E+02  0.43378726791E+02  0.00000000000E+00 0. -1.
         11    1    1    2    0    0 -0.88273178331E-02 -0.18781325903E+01 -0.17983882491E+02  0.18081689341E+02  0.00000000000E+00 0.  1.
        -15    1    1    2    0    0 -0.33087292784E+01  0.67959096170E+01 -0.55576008503E+01  0.95486508561E+01  0.17770000000E+01 0. -1.
         15    1    1    2    0    0  0.24343422262E+01 -0.27519843763E+01 -0.19774139851E+02  0.20190933013E+02  0.17770000000E+01 0.  1.
</event>
<event>
 6    1  0.3691007E-002  0.4655252E+02  0.7546771E-02  0.1313504E+00
        -11   -1    0    0    0    0  0.00000000000E+00  0.00000000000E+00  0.45600000000E+02  0.45600000000E+02  0.00000000000E+00 0.  1.
         11   -1    0    0    0    0 -0.00000000000E+00 -0.00000000000E+00 -0.45600000000E+02  0.45600000000E+02  0.00000000000E+00 0. -1.
        -11    1    1    2    0    0  0.33575297647E+00 -0.16320514424E+01  0.32533339979E+02  0.32575980909E+02  0.00000000000E+00 0.  1.
         11    1    1    2    0    0  0.12570793965E+01 -0.63132547206E-01 -0.44629736531E+02  0.44647481644E+02  0.00000000000E+00 0. -1.
        -15    1    1    2    0    0 -0.17034575945E+01 -0.10564067277E+01  0.19482006219E+01  0.33122466113E+01  0.17770000000E+01 0.  1.
         15    1    1    2    0    0  0.11062522154E+00  0.27515907173E+01  0.10148195930E+02  0.10664290836E+02  0.17770000000E+01 0.  1.
</event>
<event>
 6    1  0.3691007E-002  0.4586133E+02  0.7546771E-02  0.1316828E+00
        -11   -1    0    0    0    0  0.00000000000E+00  0.00000000000E+00  0.45600000000E+02  0.45600000000E+02  0.00000000000E+00 0. -1.
         11   -1    0    0    0    0 -0.00000000000E+00 -0.00000000000E+00 -0.45600000000E+02  0.45600000000E+02  0.00000000000E+00 0. -1.
        -11    1    1    2    0    0  0.26864501698E+01 -0.17260523850E+00  0.45258680405E+02  0.45338669578E+02  0.00000000000E+00 0. -1.
         11    1    1    2    0    0 -0.19980622094E+00  0.95610611145E+00 -0.18133190726E+02  0.18159478719E+02  0.00000000000E+00 0. -1.
        -15    1    1    2    0    0 -0.26267585648E+01  0.63132448877E+00 -0.13116023158E+02  0.13508746191E+02  0.17770000000E+01 0.  1.
         15    1    1    2    0    0  0.14011461601E+00 -0.14148253617E+01 -0.14009466520E+02  0.14193105513E+02  0.17770000000E+01 0. -1.
</event>
<event>
 6    1  0.3691007E-002  0.4623325E+02  0.7546771E-02  0.1315031E+00
        -11   -1    0    0    0    0  0.00000000000E+00  0.00000000000E+00  0.45600000000E+02  0.45600000000E+02  0.00000000000E+00 0.  1.
         11   -1    0    0    0    0 -0.00000000000E+00 -0.00000000000E+00 -0.45600000000E+02  0.45600000000E+02  0.00000000000E+00 0.  1.
        -11    1    1    2    0    0 -0.10489741413E+01  0.49419681535E+00  0.26405718283E+02  0.26431165984E+02  0.00000000000E+00 0.  1.
         11    1    1    2    0    0  0.19272667644E+01 -0.21188806540E+01 -0.44875429638E+02  0.44966745464E+02  0.00000000000E+00 0.  1.
        -15    1    1    2    0    0  0.15815642848E+01  0.13207115727E+01  0.14716957980E+02  0.14966369160E+02  0.17770000000E+01 0. -1.
         15    1    1    2    0    0 -0.24598569079E+01  0.30397226595E+00  0.37527533750E+01  0.48357193922E+01  0.17770000000E+01 0.  1.
</event>
<event>
 6    1  0.3691007E-002  0.5099084E+02  0.7546771E-02  0.1293636E+00
        -11   -1    0    0    0    0  0.00000000000E+00  0.00000000000E+00  0.45600000000E+02  0.45600000000E+02  0.00000000000E+00 0. -1.
         11   -1    0    0    0    0 -0.00000000000E+00 -0.00000000000E+00 -0.45600000000E+02  0.45600000000E+02  0.00000000000E+00 0.  1.
        -11    1    1    2    0    0 -0.13734448631E+00  0.29190291258E+01  0.32770876472E+02  0.32900910919E+02  0.00000000000E+00 0. -1.
         11    1    1    2    0    0 -0.19838477080E+00 -0.82332679162E+00 -0.40200237702E+02  0.40209157350E+02  0.00000000000E+00 0.  1.
        -15    1    1    2    0    0  0.41684105265E+01  0.36848350533E+01  0.90293229412E+01  0.10753606719E+02  0.17770000000E+01 0.  1.
         15    1    1    2    0    0 -0.38326812694E+01 -0.57805373875E+01 -0.15999617111E+01  0.73363250118E+01  0.17770000000E+01 0. -1.
</event>
<event>
 6    1  0.3691007E-002  0.4640212E+02  0.7546771E-02  0.1314222E+00
        -11   -1    0    0    0    0  0.00000000000E+00  0.00000000000E+00  0.45600000000E+02  0.45600000000E+02  0.00000000000E+00 0. -1.
         11   -1    0    0    0    0 -0.00000000000E+00 -0.00000000000E+00 -0.45600000000E+02  0.45600000000E+02  0.00000000000E+00 0. -1.
        -11    1    1    2    0    0 -0.20287962332E+01  0.17669775711E+01  0.44717022073E+02  0.44797882617E+02  0.00000000000E+00 0. -1.
         11    1    1    2    0    0  0.27675844258E+01  0.27290380867E-01 -0.10030326565E+02  0.10405177525E+02  0.00000000000E+00 0. -1.
        -15    1    1    2    0    0 -0.40908639780E+01 -0.27435562301E+01 -0.14075435563E+02  0.15017918770E+02  0.17770000000E+01 0.  1.
         15    1    1    2    0    0  0.33520757854E+01  0.94928827819E+00 -0.20611259944E+02  0.20979021088E+02  0.17770000000E+01 0. -1.
</event>
<event>
 6    1  0.3691007E-002  0.4682934E+02  0.7546771E-02  0.1312192E+00
        -11   -1    0    0    0    0  0.00000000000E+00  0.00000000000E+00  0.45600000000E+02  0.45600000000E+02  0.00000000000E+00 0.  1.
         11   -1    0    0    0    0 -0.00000000000E+00 -0.00000000000E+00 -0.45600000000E+02  0.45600000000E+02  0.00000000000E+00 0.  1.
        -11    1    1    2    0    0  0.32886986771E+01  0.35812844120E+00  0.44247164186E+02  0.44370658475E+02  0.00000000000E+00 0.  1.
         11    1    1    2    0    0 -0.61886201730E+00 -0.19557585829E-03 -0.31522434285E+02  0.31528508583E+02  0.00000000000E+00 0.  1.
        -15    1    1    2    0    0 -0.13142644741E+01  0.26643555059E+00 -0.12787062004E+02  0.12979405329E+02  0.17770000000E+01 0.  1.
         15    1    1    2    0    0 -0.13555721857E+01 -0.62436841593E+00  0.62332102199E-01  0.23214276126E+01  0.17770000000E+01 0. -1.
</event>
<event>
 6    1  0.3691007E-002  0.4830492E+02  0.7546771E-02  0.1305367E+00
        -11   -1    0    0    0    0  0.00000000000E+00  0.00000000000E+00  0.45600000000E+02  0.45600000000E+02  0.00000000000E+00 0.  1.
         11   -1    0    0    0    0 -0.00000000000E+00 -0.00000000000E+00 -0.45600000000E+02  0.45600000000E+02  0.00000000000E+00 0. -1.
        -11    1    1    2    0    0 -0.16893074924E+01 -0.23556697431E-01  0.42861800019E+02  0.42895083816E+02  0.00000000000E+00 0.  1.
         11    1    1    2    0    0 -0.23462516712E+00  0.21377928525E+01 -0.30080217435E+02  0.30157000650E+02  0.00000000000E+00 0. -1.
        -15    1    1    2    0    0 -0.21806057937E+01  0.19489448476E+01  0.59157439290E+00  0.34729118775E+01  0.17770000000E+01 0.  1.
         15    1    1    2    0    0  0.41045384532E+01 -0.40631810027E+01 -0.13373156977E+02  0.14675003656E+02  0.17770000000E+01 0. -1.
</event>
<event>
 6    1  0.3691007E-002  0.5031799E+02  0.7546771E-02  0.1296495E+00
        -11   -1    0    0    0    0  0.00000000000E+00  0.00000000000E+00  0.45600000000E+02  0.45600000000E+02  0.00000000000E+00 0.  1.
         11   -1    0    0    0    0 -0.00000000000E+00 -0.00000000000E+00 -0.45600000000E+02  0.45600000000E+02  0.00000000000E+00 0. -1.
        -11    1    1    2    0    0  0.11027924932E+00  0.18782132926E+01  0.23703413330E+02  0.23777965644E+02  0.00000000000E+00 0.  1.
         11    1    1    2    0    0 -0.22222661354E+01  0.69200244592E-01 -0.40821509396E+02  0.40882011751E+02  0.00000000000E+00 0. -1.
        -15    1    1    2    0    0  0.30588162343E-01 -0.27769044036E+01  0.21255954271E+02  0.21510124469E+02  0.17770000000E+01 0.  1.
         15    1    1    2    0    0  0.20813987237E+01  0.82949086644E+00 -0.41378582043E+01  0.50298981365E+01  0.17770000000E+01 0.  1.
</event>
<event>
 6    1  0.3691007E-002  0.4623304E+02  0.7546771E-02  0.1315032E+00
        -11   -1    0    0    0    0  0.00000000000E+00  0.00000000000E+00  0.45600000000E+02  0.45600000000E+02  0.00000000000E+00 0. -1.
         11   -1    0    0    0    0 -0.00000000000E+00 -0.00000000000E+00 -0.45600000000E+02  0.45600000000E+02  0.00000000000E+00 0.  1.
        -11    1    1    2    0    0 -0.20971729016E+01  0.10978709994E+01  0.44904610078E+02  0.44966959662E+02  0.00000000000E+00 0. -1.
         11    1    1    2    0    0 -0.14889823042E-01 -0.54619393794E+00 -0.22638302396E+02  0.22644895339E+02  0.00000000000E+00 0.  1.
        -15    1    1    2    0    0  0.13524100154E+01 -0.29081425773E+01 -0.17847958043E+02  0.18220692671E+02  0.17770000000E+01 0.  1.
         15    1    1    2    0    0  0.75965270923E+00  0.23564655159E+01 -0.44183496395E+01  0.53674523289E+01  0.17770000000E+01 0. -1.
</event>
<event>
 6    1  0.3691007E-002  0.4779839E+02  0.7546771E-02  0.1307678E+00
        -11   -1    0    0    0    0  0.00000000000E+00  0.00000000000E+00  0.45600000000E+02  0.45600000000E+02  0.00000000000E+00 0.  1.
         11   -1    0    0    0    0 -0.00000000000E+00 -0.00000000000E+00 -0.45600000000E+02  0.45600000000E+02  0.00000000000E+00 0. -1.
        -11    1    1    2    0    0 -0.13562496580E+01  0.28569813810E+01  0.43286230477E+02  0.43401607166E+02  0.00000000000E+00 0.  1.
         11    1    1    2    0    0 -0.55906800917E+00  0.26545856959E+01 -0.16582063566E+02  0.16802506192E+02  0.00000000000E+00 0. -1.
        -15    1    1    2    0    0 -0.27927315902E+01 -0.20406073730E+01 -0.23997130528E+02  0.24310150776E+02  0.17770000000E+01 0. -1.
         15    1    1    2    0    0  0.47080492574E+01 -0.34709597039E+01 -0.27070363829E+01  0.66857358649E+01  0.17770000000E+01 0.  1.
</event>
<event>
 6    1  0.3691007E-002  0.4779187E+02  0.7546771E-02  0.1307708E+00
        -11   -1    0    0    0    0  0.00000000000E+00  0.00000000000E+00  0.45600000000E+02  0.45600000000E+02  0.00000000000E+00 0.  1.
         11   -1    0    0    0    0 -0.00000000000E+00 -0.00000000000E+00 -0.45600000000E+02  0.45600000000E+02  0.00000000000E+00 0.  1.
        -11    1    1    2    0    0  0.76906881187E+00  0.23040163423E+01  0.43340113303E+02  0.43408125729E+02  0.00000000000E+00 0.  1.
         11    1    1    2    0    0  0.68184449941E+00 -0.42256195733E+00 -0.41715062715E+02  0.41722774690E+02  0.00000000000E+00 0.  1.
        -15    1    1    2    0    0  0.29737890145E+00 -0.10058514035E+01  0.10447995929E+01  0.23129000079E+01  0.17770000000E+01 0. -1.
         15    1    1    2    0    0 -0.17482922127E+01 -0.87560298139E+00 -0.26698501818E+01  0.37561995734E+01  0.17770000000E+01 0.  1.
</event>
<event>
 6    1  0.3691007E-002  0.4643870E+02  0.7546771E-02  0.1314047E+00
        -11   -1    0    0    0    0  0.00000000000E+00  0.00000000000E+00  0.45600000000E+02  0.45600000000E+02  0.00000000000E+00 0. -1.
         11   -1    0    0    0    0 -0.00000000000E+00 -0.00000000000E+00 -0.45600000000E+02  0.45600000000E+02  0.00000000000E+00 0. -1.
        -11    1    1    2    0    0 -0.84520616944E+00 -0.84696532854E+00  0.38211233457E+02  0.38229963197E+02  0.00000000000E+00 0. -1.
         11    1    1    2    0    0  0.78698599712E+00  0.21288767906E+00 -0.44753873001E+02  0.44761298202E+02  0.00000000000E+00 0. -1.
        -15    1    1    2    0    0  0.66773545639E+00 -0.80091052118E-01  0.57370729457E+01  0.60435105858E+01  0.17770000000E+01 0. -1.
         15    1    1    2    0    0 -0.60951528406E+00  0.71416870159E+00  0.80556659816E+00  0.21652280157E+01  0.17770000000E+01 0.  1.
</event>
<event>
 6    1  0.3691007E-002  0.4734061E+02  0.7546771E-02  0.1309795E+00
        -11   -1    0    0    0    0  0.00000000000E+00  0.00000000000E+00  0.45600000000E+02  0.45600000000E+02  0.00000000000E+00 0. -1.
         11   -1    0    0    0    0 -0.00000000000E+00 -0.00000000000E+00 -0.45600000000E+02  0.45600000000E+02  0.00000000000E+00 0. -1.
        -11    1    1    2    0    0  0.25321238183E+01  0.12167185304E+01  0.40360562069E+02  0.40458213326E+02  0.00000000000E+00 0. -1.
         11    1    1    2    0    0 -0.67921633973E+00 -0.52008160653E-01 -0.43854095873E+02  0.43859386276E+02  0.00000000000E+00 0. -1.
        -15    1    1    2    0    0 -0.11952097176E+00 -0.12354120160E+01 -0.45788470177E+00  0.22153815726E+01  0.17770000000E+01 0. -1.
         15    1    1    2    0    0 -0.17333865068E+01  0.70701646247E-01  0.39514185058E+01  0.46670188250E+01  0.17770000000E+01 0. -1.
</event>
<event>
 6    1  0.4205330E-002  0.4869566E+02  0.7546771E-02  0.1303607E+00
        -11   -1    0    0    0    0  0.00000000000E+00  0.00000000000E+00  0.45600000000E+02  0.45600000000E+02  0.00000000000E+00 0.  1.
         11   -1    0    0    0    0 -0.00000000000E+00 -0.00000000000E+00 -0.45600000000E+02  0.45600000000E+02  0.00000000000E+00 0.  1.
        -11    1    1    2    0    0 -0.85249646111E+00  0.63602279382E-01  0.42495737523E+02  0.42504335110E+02  0.00000000000E+00 0.  1.
         11    1    1    2    0    0  0.36077246784E+01 -0.47445398285E+01 -0.34253062748E+02  0.34767781683E+02  0.00000000000E+00 0.  1.
        -15    1    1    2    0    0  0.12199988179E+01  0.22202231604E+01  0.11380846454E+01  0.32970825980E+01  0.17770000000E+01 0.  1.
         15    1    1    2    0    0 -0.39752270352E+01  0.24607143887E+01 -0.93807594212E+01  0.10630800610E+02  0.17770000000E+01 0. -1.
</event>
<event>
 6    1  0.3691007E-002  0.4733380E+02  0.7546771E-02  0.1309826E+00
        -11   -1    0    0    0    0  0.00000000000E+00  0.00000000000E+00  0.45600000000E+02  0.45600000000E+02  0.00000000000E+00 0.  1.
         11   -1    0    0    0    0 -0.00000000000E+00 -0.00000000000E+00 -0.45600000000E+02  0.45600000000E+02  0.00000000000E+00 0.  1.
        -11    1    1    2    0    0 -0.13706987082E+01  0.28094243086E+01  0.99778441109E+01  0.10456053414E+02  0.00000000000E+00 0.  1.
         11    1    1    2    0    0 -0.32204341837E+01 -0.10579051855E+02 -0.42449448936E+02  0.43866197116E+02  0.00000000000E+00 0.  1.
        -15    1    1    2    0    0  0.37103267649E+00  0.66632710511E+01  0.31259887400E+02  0.32013671074E+02  0.17770000000E+01 0.  1.
         15    1    1    2    0    0  0.42201002154E+01  0.11063564954E+01  0.12117174247E+01  0.48640783958E+01  0.17770000000E+01 0. -1.
</event>
<event>
 6    1  0.3691007E-002  0.4762810E+02  0.7546771E-02  0.1308462E+00
        -11   -1    0    0    0    0  0.00000000000E+00  0.00000000000E+00  0.45600000000E+02  0.45600000000E+02  0.00000000000E+00 0. -1.
         11   -1    0    0    0    0 -0.00000000000E+00 -0.00000000000E+00 -0.45600000000E+02  0.45600000000E+02  0.00000000000E+00 0.  1.
        -11    1    1    2    0    0  0.53934069767E+00  0.84717116710E+00  0.43560320499E+02  0.43571895866E+02  0.00000000000E+00 0. -1.
         11    1    1    2    0    0 -0.26456122552E+01  0.35045999590E+01 -0.30930849211E+02  0.31240981386E+02  0.00000000000E+00 0.  1.
        -15    1    1    2    0    0  0.35032938624E+01 -0.54620623186E+01 -0.12053016923E+02  0.13803627733E+02  0.17770000000E+01 0. -1.
         15    1    1    2    0    0 -0.13970223048E+01  0.11102911925E+01 -0.57645436539E+00  0.25834950141E+01  0.17770000000E+01 0.  1.
</event>
<event>
 6    1  0.3691007E-002  0.3180064E+02  0.7546771E-02  0.1403927E+00
        -11   -1    0    0    0    0  0.00000000000E+00  0.00000000000E+00  0.45600000000E+02  0.45600000000E+02  0.00000000000E+00 0. -1.
         11   -1    0    0    0    0 -0.00000000000E+00 -0.00000000000E+00 -0.45600000000E+02  0.45600000000E+02  0.00000000000E+00 0. -1.
        -11    1    1    2    0    0 -0.24713498880E+01  0.42618629175E+01  0.36038300376E+02  0.36373481271E+02  0.00000000000E+00 0. -1.
         11    1    1    2    0    0  0.81080723026E+00  0.17506167461E+00 -0.20784665599E+01  0.22378735878E+01  0.00000000000E+00 0. -1.
        -15    1    1    2    0    0 -0.18263195322E+02  0.21552032210E+01 -0.11322051032E+02  0.21668774143E+02  0.17770000000E+01 0.  1.
         15    1    1    2    0    0  0.19923737979E+02 -0.65921278131E+01 -0.22637782784E+02  0.30919870998E+02  0.17770000000E+01 0. -1.
</event>
<event>
 6    1  0.3691007E-002  0.4747820E+02  0.7546771E-02  0.1309156E+00
        -11   -1    0    0    0    0  0.00000000000E+00  0.00000000000E+00  0.45600000000E+02  0.45600000000E+02  0.00000000000E+00 0.  1.
         11   -1    0    0    0    0 -0.00000000000E+00 -0.00000000000E+00 -0.45600000000E+02  0.45600000000E+02  0.00000000000E+00 0.  1.
        -11    1    1    2    0    0 -0.15815471609E+01  0.85769039328E+00  0.43684762423E+02  0.43721795391E+02  0.00000000000E+00 0.  1.
         11    1    1    2    0    0 -0.20349530757E+00 -0.91766260232E+00 -0.36340056242E+02  0.36352210424E+02  0.00000000000E+00 0.  1.
        -15    1    1    2    0    0  0.76008566518E+00  0.27987690543E+01 -0.68772096744E+01  0.76723256151E+01  0.17770000000E+01 0. -1.
         15    1    1    2    0    0  0.10249568033E+01 -0.27387968453E+01 -0.46749650659E+00  0.34536685701E+01  0.17770000000E+01 0.  1.
</event>
<event>
 6    1  0.4141800E-002  0.4897143E+02  0.7546771E-02  0.1302376E+00
        -11   -1    0    0    0    0  0.00000000000E+00  0.00000000000E+00  0.45600000000E+02  0.45600000000E+02  0.00000000000E+00 0. -1.
         11   -1    0    0    0    0 -0.00000000000E+00 -0.00000000000E+00 -0.45600000000E+02  0.45600000000E+02  0.00000000000E+00 0.  1.
        -11    1    1    2    0    0 -0.12074725744E+01 -0.50005885621E+00  0.42208344166E+02  0.42228572863E+02  0.00000000000E+00 0. -1.
         11    1    1    2    0    0  0.20932031826E+00 -0.50618278240E+00 -0.37470918886E+02  0.37474922257E+02  0.00000000000E+00 0.  1.
        -15    1    1    2    0    0  0.45853412042E+00  0.20683027707E+00 -0.76951989261E+01  0.79137126443E+01  0.17770000000E+01 0.  1.
         15    1    1    2    0    0  0.53961813570E+00  0.79941136154E+00  0.29577736466E+01  0.35827922354E+01  0.17770000000E+01 0.  1.
</event>
<event>
 6    1  0.3691007E-002  0.5053315E+02  0.7546771E-02  0.1295575E+00
        -11   -1    0    0    0    0  0.00000000000E+00  0.00000000000E+00  0.45600000000E+02  0.45600000000E+02  0.00000000000E+00 0. -1.
         11   -1    0    0    0    0 -0.00000000000E+00 -0.00000000000E+00 -0.45600000000E+02  0.45600000000E+02  0.00000000000E+00 0.  1.
        -11    1    1    2    0    0 -0.51779197779E+01 -0.27598056494E+01  0.24082793076E+02  0.24787260897E+02  0.00000000000E+00 0. -1.
         11    1    1    2    0    0  0.33068946201E+01  0.41138362672E+00 -0.40530081746E+02  0.40666845400E+02  0.00000000000E+00 0.  1.
        -15    1    1    2    0    0 -0.85180779595E+01  0.31068497840E+01  0.75562795666E+01  0.11935881098E+02  0.17770000000E+01 0. -1.
         15    1    1    2    0    0  0.10389103117E+02 -0.75842776135E+00  0.88910091028E+01  0.13810012604E+02  0.17770000000E+01 0.  1.
</event>
<event>
 6    1  0.5195276E-002  0.4496585E+02  0.7546771E-02  0.1321236E+00
        -11   -1    0    0    0    0  0.00000000000E+00  0.00000000000E+00  0.45600000000E+02  0.45600000000E+02  0.00000000000E+00 0. -1.
         11   -1    0    0    0    0 -0.00000000000E+00 -0.00000000000E+00 -0.45600000000E+02  0.45600000000E+02  0.00000000000E+00 0.  1.
        -11    1    1    2    0    0 -0.99248221403E+00 -0.96752998607E+00  0.44122981736E+02  0.44144746602E+02  0.00000000000E+00 0. -1.
         11    1    1    2    0    0 -0.13253653475E+01  0.16713954637E+01 -0.23933756325E+01  0.32059948563E+01  0.00000000000E+00 0.  1.
        -15    1    1    2    0    0  0.37725090802E+01 -0.51924168572E+01 -0.12265094936E+02  0.13956478796E+02  0.17770000000E+01 0.  1.
         15    1    1    2    0    0 -0.14546615187E+01  0.44885513796E+01 -0.29464511168E+02  0.29892779746E+02  0.17770000000E+01 0. -1.
</event>
<event>
 6    1  0.3691007E-002  0.4659578E+02  0.7546771E-02  0.1313298E+00
        -11   -1    0    0    0    0  0.00000000000E+00  0.00000000000E+00  0.45600000000E+02  0.45600000000E+02  0.00000000000E+00 0. -1.
         11   -1    0    0    0    0 -0.00000000000E+00 -0.00000000000E+00 -0.45600000000E+02  0.45600000000E+02  0.00000000000E+00 0. -1.
        -11    1    1    2    0    0  0.62489246729E+00  0.13189759876E+01  0.34704339471E+02  0.34735016429E+02  0.00000000000E+00 0. -1.
         11    1    1    2    0    0 -0.62429629559E+00 -0.36342958683E+00 -0.44598366461E+02  0.44604216369E+02  0.00000000000E+00 0. -1.
        -15    1    1    2    0    0  0.95951883232E+00 -0.16849015258E+01  0.11739863944E+01  0.28801983604E+01  0.17770000000E+01 0. -1.
         15    1    1    2    0    0 -0.96011500403E+00  0.72935512505E+00  0.87200405958E+01  0.89805688412E+01  0.17770000000E+01 0.  1.
</event>
<event>
 6    1  0.3691007E-002  0.4951948E+02  0.7546771E-02  0.1299956E+00
        -11   -1    0    0    0    0  0.00000000000E+00  0.00000000000E+00  0.45600000000E+02  0.45600000000E+02  0.00000000000E+00 0. -1.
         11   -1    0    0    0    0 -0.00000000000E+00 -0.00000000000E+00 -0.45600000000E+02  0.45600000000E+02  0.00000000000E+00 0. -1.
        -11    1    1    2    0    0 -0.17432110745E+01 -0.74643382334E+01  0.34232366252E+02  0.35080051729E+02  0.00000000000E+00 0. -1.
         11    1    1    2    0    0  0.35993397506E+01  0.16468126031E+01 -0.41492154649E+02  0.41680524659E+02  0.00000000000E+00 0. -1.
        -15    1    1    2    0    0  0.18236502937E+01  0.73679468158E+01  0.61519480489E+01  0.99305858070E+01  0.17770000000E+01 0. -1.
         15    1    1    2    0    0 -0.36797789698E+01 -0.15504211855E+01  0.11078403486E+01  0.45088378056E+01  0.17770000000E+01 0.  1.
</event>
<event>
 6    1  0.3691007E-002  0.3914085E+02  0.7546771E-02  0.1353125E+00
        -11   -1    0    0    0    0  0.00000000000E+00  0.00000000000E+00  0.45600000000E+02  0.45600000000E+02  0.00000000000E+00 0.  1.
         11   -1    0    0    0    0 -0.00000000000E+00 -0.00000000000E+00 -0.45600000000E+02  0.45600000000E+02  0.00000000000E+00 0.  1.
        -11    1    1    2    0    0  0.10293716599E+01 -0.95806370440E-01  0.39797917076E+02  0.39811342460E+02  0.00000000000E+00 0.  1.
         11    1    1    2    0    0 -0.28498197980E+00 -0.20006129486E+01 -0.38460329393E+02  0.38513382141E+02  0.00000000000E+00 0.  1.
        -15    1    1    2    0    0 -0.12422894673E+01  0.33019815723E+01  0.48800510133E+01  0.62784546121E+01  0.17770000000E+01 0.  1.
         15    1    1    2    0    0  0.49789978712E+00 -0.12055622532E+01 -0.62176386961E+01  0.65968207873E+01  0.17770000000E+01 0. -1.
</event>
<event>
 6    1  0.3691007E-002  0.5182552E+02  0.7546771E-02  0.1290158E+00
        -11   -1    0    0    0    0  0.00000000000E+00  0.00000000000E+00  0.45600000000E+02  0.45600000000E+02  0.00000000000E+00 0.  1.
         11   -1    0    0    0    0 -0.00000000000E+00 -0.00000000000E+00 -0.45600000000E+02  0.45600000000E+02  0.00000000000E+00 0. -1.
        -11    1    1    2    0    0  0.36640604259E+00 -0.93591677229E+00  0.39361649603E+02  0.39374479718E+02  0.00000000000E+00 0.  1.
         11    1    1    2    0    0  0.15369245999E+01  0.31580800485E+01 -0.35903950091E+02  0.36075327288E+02  0.00000000000E+00 0. -1.
        -15    1    1    2    0    0  0.36994410935E+01  0.19929155918E+01  0.34721098900E+01  0.57333108278E+01  0.17770000000E+01 0. -1.
         15    1    1    2    0    0 -0.56027717360E+01 -0.42150788680E+01 -0.69298094020E+01  0.10016882167E+02  0.17770000000E+01 0.  1.
</event>
<event>
 6    1  0.3691007E-002  0.4740130E+02  0.7546771E-02  0.1309512E+00
        -11   -1    0    0    0    0  0.00000000000E+00  0.00000000000E+00  0.45600000000E+02  0.45600000000E+02  0.00000000000E+00 0. -1.
         11   -1    0    0    0    0 -0.00000000000E+00 -0.00000000000E+00 -0.45600000000E+02  0.45600000000E+02  0.00000000000E+00 0.  1.
        -11    1    1    2    0    0 -0.64410645940E+00  0.59201757756E+00  0.43789963381E+02  0.43798701475E+02  0.00000000000E+00 0. -1.
         11    1    1    2    0    0  0.85155177625E-01 -0.25653935700E+01 -0.42077189103E+02  0.42155406989E+02  0.00000000000E+00 0.  1.
        -15    1    1    2    0    0  0.13461241864E+01  0.14089452450E+01 -0.68195540307E-01  0.26380971666E+01  0.17770000000E+01 0.  1.
         15    1    1    2    0    0 -0.78717290460E+00  0.56443074746E+00 -0.16445787375E+01  0.26077943696E+01  0.17770000000E+01 0. -1.
</event>
<event>
 6    1  0.3691007E-002  0.4596010E+02  0.7546771E-02  0.1316349E+00
        -11   -1    0    0    0    0  0.00000000000E+00  0.00000000000E+00  0.45600000000E+02  0.45600000000E+02  0.00000000000E+00 0. -1.
         11   -1    0    0    0    0 -0.00000000000E+00 -0.00000000000E+00 -0.45600000000E+02  0.45600000000E+02  0.00000000000E+00 0. -1.
        -11    1    1    2    0    0  0.15566014712E+01  0.16564118478E+01  0.87716615423E+01  0.90613881145E+01  0.00000000000E+00 0. -1.
         11    1    1    2    0    0 -0.35811282868E+00 -0.94635233368E+00 -0.45228586755E+02  0.45239903706E+02  0.00000000000E+00 0. -1.
        -15    1    1    2    0    0  0.28779125341E+00  0.12300763572E+01  0.83551553689E+01  0.86349442319E+01  0.17770000000E+01 0.  1.
         15    1    1    2    0    0 -0.14862798960E+01 -0.19401358713E+01  0.28101769843E+02  0.28263763947E+02  0.17770000000E+01 0. -1.
</event>
<event>
 6    1  0.3691007E-002  0.4596379E+02  0.7546771E-02  0.1316331E+00
        -11   -1    0    0    0    0  0.00000000000E+00  0.00000000000E+00  0.45600000000E+02  0.45600000000E+02  0.00000000000E+00 0.  1.
         11   -1    0    0    0    0 -0.00000000000E+00 -0.00000000000E+00 -0.45600000000E+02  0.45600000000E+02  0.00000000000E+00 0. -1.
        -11    1    1    2    0    0  0.18418227193E+00  0.22056436704E+01  0.22360029521E+02  0.22469305892E+02  0.00000000000E+00 0.  1.
         11    1    1    2    0    0 -0.78505378248E+00  0.31711967211E+00 -0.45228288738E+02  0.45236213109E+02  0.00000000000E+00 0. -1.
        -15    1    1    2    0    0 -0.60052989859E+00 -0.22165474275E+01  0.16843056872E+02  0.17091518728E+02  0.17770000000E+01 0. -1.
         15    1    1    2    0    0  0.12014014091E+01 -0.30621591502E+00  0.60252023454E+01  0.64029622703E+01  0.17770000000E+01 0.  1.
</event>
<event>
 6    1  0.3691007E-002  0.4685339E+02  0.7546771E-02  0.1312078E+00
        -11   -1    0    0    0    0  0.00000000000E+00  0.00000000000E+00  0.45600000000E+02  0.45600000000E+02  0.00000000000E+00 0. -1.
         11   -1    0    0    0    0 -0.00000000000E+00 -0.00000000000E+00 -0.45600000000E+02  0.45600000000E+02  0.00000000000E+00 0.  1.
        -11    1    1    2    0    0  0.14076060961E+01  0.87057304281E+00  0.44315719337E+02  0.44346614671E+02  0.00000000000E+00 0. -1.
         11    1    1    2    0    0  0.72322648471E+00  0.20506173655E+01 -0.29651523413E+02  0.29731144089E+02  0.00000000000E+00 0.  1.
        -15    1    1    2    0    0 -0.32319563875E+01 -0.23126665152E+00 -0.12618438068E+02  0.13148449894E+02  0.17770000000E+01 0.  1.
         15    1    1    2    0    0  0.11011238068E+01 -0.26899237568E+01 -0.20457578570E+01  0.39737913463E+01  0.17770000000E+01 0. -1.
</event>
<event>
 6    1  0.3691007E-002  0.4236809E+02  0.7546771E-02  0.1334723E+00
        -11   -1    0    0    0    0  0.00000000000E+00  0.00000000000E+00  0.45600000000E+02  0.45600000000E+02  0.00000000000E+00 0.  1.
         11   -1    0    0    0    0 -0.00000000000E+00 -0.00000000000E+00 -0.45600000000E+02  0.45600000000E+02  0.00000000000E+00 0. -1.
        -11    1    1    2    0    0  0.20012620688E+01 -0.92510613724E+00  0.41398032018E+02  0.41456699413E+02  0.00000000000E+00 0.  1.
         11    1    1    2    0    0 -0.40787956513E+00 -0.19279759690E+01 -0.43319425952E+02  0.43364226292E+02  0.00000000000E+00 0. -1.
        -15    1    1    2    0    0 -0.13763020668E+01  0.13203405888E+01 -0.84931179514E+00  0.27416356751E+01  0.17770000000E+01 0. -1.
         15    1    1    2    0    0 -0.21708043693E+00  0.15327415174E+01  0.27707057291E+01  0.36374386198E+01  0.17770000000E+01 0.  1.
</event>
<event>
 6    1  0.3691007E-002  0.4694614E+02  0.7546771E-02  0.1311641E+00
        -11   -1    0    0    0    0  0.00000000000E+00  0.00000000000E+00  0.45600000000E+02  0.45600000000E+02  0.00000000000E+00 0.  1.
         11   -1    0    0    0    0 -0.00000000000E+00 -0.00000000000E+00 -0.45600000000E+02  0.45600000000E+02  0.00000000000E+00 0.  1.
        -11    1    1    2    0    0  0.21634789450E+01 -0.63483023615E-01  0.35725128399E+02  0.35790633836E+02  0.00000000000E+00 0.  1.
         11    1    1    2    0    0  0.14653967463E+01  0.47216831346E+00 -0.44227075320E+02  0.44253864486E+02  0.00000000000E+00 0.  1.
        -15    1    1    2    0    0 -0.19453749037E+01  0.18325562755E+01  0.18072651783E+01  0.36832977674E+01  0.17770000000E+01 0. -1.
         15    1    1    2    0    0 -0.16835007876E+01 -0.22412415653E+01  0.66946817423E+01  0.74722039109E+01  0.17770000000E+01 0.  1.
</event>
<event>
 6    1  0.3691007E-002  0.5079821E+02  0.7546771E-02  0.1294449E+00
        -11   -1    0    0    0    0  0.00000000000E+00  0.00000000000E+00  0.45600000000E+02  0.45600000000E+02  0.00000000000E+00 0.  1.
         11   -1    0    0    0    0 -0.00000000000E+00 -0.00000000000E+00 -0.45600000000E+02  0.45600000000E+02  0.00000000000E+00 0.  1.
        -11    1    1    2    0    0  0.13851775288E+01  0.96327607549E+00  0.38549165276E+02  0.38586069521E+02  0.00000000000E+00 0.  1.
         11    1    1    2    0    0  0.24627831929E+00 -0.87061308932E+00 -0.40391654970E+02  0.40401787230E+02  0.00000000000E+00 0.  1.
        -15    1    1    2    0    0  0.12274091718E+01 -0.49230250384E+01 -0.13106940125E+01  0.55333856362E+01  0.17770000000E+01 0. -1.
         15    1    1    2    0    0 -0.28588650199E+01  0.48303620522E+01  0.31531837065E+01  0.66787576124E+01  0.17770000000E+01 0.  1.
</event>
<event>
 6    1  0.3691007E-002  0.4867566E+02  0.7546771E-02  0.1303696E+00
        -11   -1    0    0    0    0  0.00000000000E+00  0.00000000000E+00  0.45600000000E+02  0.45600000000E+02  0.00000000000E+00 0. -1.
         11   -1    0    0    0    0 -0.00000000000E+00 -0.00000000000E+00 -0.45600000000E+02  0.45600000000E+02  0.00000000000E+00 0. -1.
        -11    1    1    2    0    0  0.13507642728E+01 -0.98971468355E+00  0.42491354725E+02  0.42524338039E+02  0.00000000000E+00 0. -1.
         11    1    1    2    0    0 -0.13168617771E+01 -0.20528049962E+00 -0.31733079340E+02  0.31761054602E+02  0.00000000000E+00 0. -1.
        -15    1    1    2    0    0  0.50774109537E+01  0.25639072611E+01 -0.94652839820E+01  0.11184947577E+02  0.17770000000E+01 0. -1.
         15    1    1    2    0    0 -0.51113134494E+01 -0.13689120779E+01 -0.12929914027E+01  0.57296597824E+01  0.17770000000E+01 0. -1.
</event>
<event>
 6    1  0.3691007E-002  0.4668960E+02  0.7546771E-02  0.1312853E+00
        -11   -1    0    0    0    0  0.00000000000E+00  0.00000000000E+00  0.45600000000E+02  0.45600000000E+02  0.00000000000E+00 0.  1.
         11   -1    0    0    0    0 -0.00000000000E+00 -0.00000000000E+00 -0.45600000000E+02  0.45600000000E+02  0.00000000000E+00 0. -1.
        -11    1    1    2    0    0  0.11568560719E+01 -0.69703291132E+00  0.27733767299E+02  0.27766635004E+02  0.00000000000E+00 0.  1.
         11    1    1    2    0    0 -0.88840572092E+00  0.35222214658E+00 -0.44500139857E+02  0.44510400722E+02  0.00000000000E+00 0. -1.
        -15    1    1    2    0    0  0.29906225629E+01 -0.22793157603E+01  0.68396129639E+01  0.80048196822E+01  0.17770000000E+01 0.  1.
         15    1    1    2    0    0 -0.32590729139E+01  0.26241265250E+01  0.99267595938E+01  0.10918144591E+02  0.17770000000E+01 0.  1.
</event>
<event>
 6    1  0.3691007E-002  0.5021191E+02  0.7546771E-02  0.1296951E+00
        -11   -1    0    0    0    0  0.00000000000E+00  0.00000000000E+00  0.45600000000E+02  0.45600000000E+02  0.00000000000E+00 0. -1.
         11   -1    0    0    0    0 -0.00000000000E+00 -0.00000000000E+00 -0.45600000000E+02  0.45600000000E+02  0.00000000000E+00 0. -1.
        -11    1    1    2    0    0  0.48538837972E+00 -0.11117757974E+01  0.31302536833E+02  0.31326034851E+02  0.00000000000E+00 0. -1.
         11    1    1    2    0    0 -0.63912745659E+00 -0.90265636127E+00 -0.40973168251E+02  0.40988093258E+02  0.00000000000E+00 0. -1.
        -15    1    1    2    0    0  0.34532714322E+01 -0.32742091094E+00  0.12858956604E+02  0.13436620929E+02  0.17770000000E+01 0. -1.
         15    1    1    2    0    0 -0.32995323554E+01  0.23418530696E+01 -0.31883251858E+01  0.54492509627E+01  0.17770000000E+01 0.  1.
</event>
<event>
 6    1  0.3691007E-002  0.4861552E+02  0.7546771E-02  0.1303966E+00
        -11   -1    0    0    0    0  0.00000000000E+00  0.00000000000E+00  0.45600000000E+02  0.45600000000E+02  0.00000000000E+00 0.  1.
         11   -1    0    0    0    0 -0.00000000000E+00 -0.00000000000E+00 -0.45600000000E+02  0.45600000000E+02  0.00000000000E+00 0.  1.
        -11    1    1    2    0    0 -0.17516057176E+01 -0.25941679447E+01  0.42469287394E+02  0.42584483109E+02  0.00000000000E+00 0.  1.
         11    1    1    2    0    0 -0.69121426762E+00 -0.18222775111E+00 -0.39689788565E+02  0.39696225267E+02  0.00000000000E+00 0.  1.
        -15    1    1    2    0    0 -0.17577113346E+01 -0.79670653599E+00 -0.39082227748E+00  0.26523124802E+01  0.17770000000E+01 0. -1.
         15    1    1    2    0    0  0.42005313198E+01  0.35731022318E+01 -0.23886765515E+01  0.62669791443E+01  0.17770000000E+01 0. -1.
</event>
<event>
 6    1  0.3691007E-002  0.4887021E+02  0.7546771E-02  0.1302826E+00
        -11   -1    0    0    0    0  0.00000000000E+00  0.00000000000E+00  0.45600000000E+02  0.45600000000E+02  0.00000000000E+00 0.  1.
         11   -1    0    0    0    0 -0.00000000000E+00 -0.00000000000E+00 -0.45600000000E+02  0.45600000000E+02  0.00000000000E+00 0.  1.
        -11    1    1    2    0    0  0.20422476021E+01  0.34038893815E+00  0.37166470668E+02  0.37224094104E+02  0.00000000000E+00 0.  1.
         11    1    1    2    0    0  0.13892645007E+01  0.26963035467E+01 -0.42220981857E+02  0.42329793499E+02  0.00000000000E+00 0.  1.
        -15    1    1    2    0    0 -0.32687779807E+01 -0.11216188150E+01  0.72525817359E+01  0.82280379854E+01  0.17770000000E+01 0. -1.
         15    1    1    2    0    0 -0.16273412213E+00 -0.19150736698E+01 -0.21980705470E+01  0.34180744119E+01  0.17770000000E+01 0.  1.
</event>
<event>
 6    1  0.3691007E-002  0.4574311E+02  0.7546771E-02  0.1317403E+00
        -11   -1    0    0    0    0  0.00000000000E+00  0.00000000000E+00  0.45600000000E+02  0.45600000000E+02  0.00000000000E+00 0.  1.
         11   -1    0    0    0    0 -0.00000000000E+00 -0.00000000000E+00 -0.45600000000E+02  0.45600000000E+02  0.00000000000E+00 0. -1.
        -11    1    1    2    0    0 -0.10987636614E+01 -0.38275916819E+00  0.45441996534E+02  0.45456889854E+02  0.00000000000E+00 0.  1.
         11    1    1    2    0    0  0.55316188609E+00  0.20366441773E+00 -0.66658477319E+01  0.66918602236E+01  0.00000000000E+00 0. -1.
        -15    1    1    2    0    0  0.14243667333E+01  0.16974394057E-01 -0.12959739948E+02  0.13158331856E+02  0.17770000000E+01 0.  1.
         15    1    1    2    0    0 -0.87876495800E+00  0.16212035640E+00 -0.25816408854E+02  0.25892918067E+02  0.17770000000E+01 0. -1.
</event>
<event>
 6    1  0.3691007E-002  0.4601174E+02  0.7546771E-02  0.1316099E+00
        -11   -1    0    0    0    0  0.00000000000E+00  0.00000000000E+00  0.45600000000E+02  0.45600000000E+02  0.00000000000E+00 0.  1.
         11   -1    0    0    0    0 -0.00000000000E+00 -0.00000000000E+00 -0.45600000000E+02  0.45600000000E+02  0.00000000000E+00 0.  1.
        -11    1    1    2    0    0 -0.65627193433E+00  0.45266532476E+00  0.45181223931E+02  0.45188257265E+02  0.00000000000E+00 0.  1.
         11    1    1    2    0    0 -0.34067215934E-01  0.11751082508E+01 -0.18462764878E+02  0.18500154781E+02  0.00000000000E+00 0.  1.
        -15    1    1    2    0    0  0.17732112987E+01 -0.42302436057E+00 -0.22597269196E+02  0.22740218382E+02  0.17770000000E+01 0.  1.
         15    1    1    2    0    0 -0.10828721484E+01 -0.12047492149E+01 -0.41211898565E+01  0.47713695722E+01  0.17770000000E+01 0. -1.
</event>
<event>
 6    1  0.3691007E-002  0.4677298E+02  0.7546771E-02  0.1312458E+00
        -11   -1    0    0    0    0  0.00000000000E+00  0.00000000000E+00  0.45600000000E+02  0.45600000000E+02  0.00000000000E+00 0. -1.
         11   -1    0    0    0    0 -0.00000000000E+00 -0.00000000000E+00 -0.45600000000E+02  0.45600000000E+02  0.00000000000E+00 0.  1.
        -11    1    1    2    0    0  0.70772345659E+00 -0.58089895288E-01  0.44421339983E+02  0.44427015349E+02  0.00000000000E+00 0. -1.
         11    1    1    2    0    0 -0.69099843823E+00 -0.58181979460E+00 -0.22838455946E+02  0.22856313419E+02  0.00000000000E+00 0.  1.
        -15    1    1    2    0    0  0.20079509604E+01  0.75308313343E+00 -0.20966731010E+02  0.21150899260E+02  0.17770000000E+01 0.  1.
         15    1    1    2    0    0 -0.20246759787E+01 -0.11317344354E+00 -0.61615302772E+00  0.27657719719E+01  0.17770000000E+01 0.  1.
</event>
<event>
 6    1  0.3691007E-002  0.4959267E+02  0.7546771E-02  0.1299636E+00
        -11   -1    0    0    0    0  0.00000000000E+00  0.00000000000E+00  0.45600000000E+02  0.45600000000E+02  0.00000000000E+00 0.  1.
         11   -1    0    0    0    0 -0.00000000000E+00 -0.00000000000E+00 -0.45600000000E+02  0.45600000000E+02  0.00000000000E+00 0.  1.
        -11    1    1    2    0    0  0.36850755567E+01 -0.34630389067E+01  0.41298883266E+02  0.41607333240E+02  0.00000000000E+00 0.  1.
         11    1    1    2    0    0  0.31365433365E+01 -0.16312528680E+01 -0.30090705641E+02  0.30297680703E+02  0.00000000000E+00 0.  1.
        -15    1    1    2    0    0 -0.37635260557E+01  0.10960343723E+01 -0.12976483203E+02  0.13671586047E+02  0.17770000000E+01 0. -1.
         15    1    1    2    0    0 -0.30580928375E+01  0.39982574024E+01  0.17683055776E+01  0.56234000102E+01  0.17770000000E+01 0. -1.
</event>
<event>
 6    1  0.3691007E-002  0.4773844E+02  0.7546771E-02  0.1307953E+00
        -11   -1    0    0    0    0  0.00000000000E+00  0.00000000000E+00  0.45600000000E+02  0.45600000000E+02  0.00000000000E+00 0. -1.
         11   -1    0    0    0    0 -0.00000000000E+00 -0.00000000000E+00 -0.45600000000E+02  0.45600000000E+02  0.00000000000E+00 0. -1.
        -11    1    1    2    0    0 -0.77043622527E+00 -0.47663401746E+01  0.43192536483E+02  0.43461555178E+02  0.00000000000E+00 0. -1.
         11    1    1    2    0    0  0.10821684123E+01 -0.12261040179E+01 -0.23377006122E+02  0.23434138234E+02  0.00000000000E+00 0. -1.
        -15    1    1    2    0    0  0.16222908626E+01  0.37769394515E+01 -0.20341131566E+02  0.20828261129E+02  0.17770000000E+01 0.  1.
         15    1    1    2    0    0 -0.19340230496E+01  0.22155047410E+01  0.52560120489E+00  0.34760454601E+01  0.17770000000E+01 0. -1.
</event>
<event>
 6    1  0.3691007E-002  0.4800566E+02  0.7546771E-02  0.1306728E+00
        -11   -1    0    0    0    0  0.00000000000E+00  0.00000000000E+00  0.45600000000E+02  0.45600000000E+02  0.00000000000E+00 0. -1.
         11   -1    0    0    0    0 -0.00000000000E+00 -0.00000000000E+00 -0.45600000000E+02  0.45600000000E+02  0.00000000000E+00 0.  1.
        -11    1    1    2    0    0 -0.59395842707E+00 -0.36710941116E+00  0.43188691362E+02  0.43194335479E+02  0.00000000000E+00 0. -1.
         11    1    1    2    0    0  0.65664847603E+00 -0.62784781634E-01 -0.42877405795E+02  0.42882479602E+02  0.00000000000E+00 0.  1.
        -15    1    1    2    0    0 -0.15750760112E+01 -0.73193867532E+00 -0.39029953840E+00  0.25152855494E+01  0.17770000000E+01 0. -1.
         15    1    1    2    0    0  0.15123859622E+01  0.11618328681E+01  0.79013971674E-01  0.26078993692E+01  0.17770000000E+01 0. -1.
</event>
<event>
 6    1  0.3691007E-002  0.4725720E+02  0.7546771E-02  0.1310183E+00
        -11   -1    0    0    0    0  0.00000000000E+00  0.00000000000E+00  0.45600000000E+02  0.45600000000E+02  0.00000000000E+00 0.  1.
         11   -1    0    0    0    0 -0.00000000000E+00 -0.00000000000E+00 -0.45600000000E+02  0.45600000000E+02  0.00000000000E+00 0. -1.
        -11    1    1    2    0    0 -0.36009996541E+01 -0.19055158606E+01  0.43753527961E+02  0.43942796887E+02  0.00000000000E+00 0.  1.
         11    1    1    2    0    0 -0.74984216728E+00  0.19975754062E+01 -0.24174048571E+02  0.24268028249E+02  0.00000000000E+00 0. -1.
        -15    1    1    2    0    0  0.47905646045E+01  0.39814153569E+01 -0.16014287310E+02  0.17274730230E+02  0.17770000000E+01 0.  1.
         15    1    1    2    0    0 -0.43972278312E+00 -0.40734749026E+01 -0.35651920801E+01  0.57144446341E+01  0.17770000000E+01 0. -1.
</event>
<event>
 6    1  0.3691007E-002  0.4752835E+02  0.7546771E-02  0.1308923E+00
        -11   -1    0    0    0    0  0.00000000000E+00  0.00000000000E+00  0.45600000000E+02  0.45600000000E+02  0.00000000000E+00 0. -1.
         11   -1    0    0    0    0 -0.00000000000E+00 -0.00000000000E+00 -0.45600000000E+02  0.45600000000E+02  0.00000000000E+00 0. -1.
        -11    1    1    2    0    0 -0.89979552156E+00  0.15952259736E+00  0.43662089379E+02  0.43671651313E+02  0.00000000000E+00 0. -1.
         11    1    1    2    0    0 -0.71850899047E+00  0.46908045337E+00 -0.32192658004E+02  0.32204091681E+02  0.00000000000E+00 0. -1.
        -15    1    1    2    0    0 -0.15067088734E+01  0.18237870087E+01  0.10312683719E+00  0.29605294842E+01  0.17770000000E+01 0. -1.
         15    1    1    2    0    0  0.31250133854E+01 -0.24523900594E+01 -0.11572558212E+02  0.12363727522E+02  0.17770000000E+01 0. -1.
</event>
<event>
 6    1  0.3691007E-002  0.4630996E+02  0.7546771E-02  0.1314663E+00
        -11   -1    0    0    0    0  0.00000000000E+00  0.00000000000E+00  0.45600000000E+02  0.45600000000E+02  0.00000000000E+00 0.  1.
         11   -1    0    0    0    0 -0.00000000000E+00 -0.00000000000E+00 -0.45600000000E+02  0.45600000000E+02  0.00000000000E+00 0.  1.
        -11    1    1    2    0    0 -0.56817861377E+00  0.95307305530E-01  0.28317498951E+02  0.28323358863E+02  0.00000000000E+00 0.  1.
         11    1    1    2    0    0 -0.94426440121E+00 -0.24940807638E+00 -0.44879412993E+02  0.44890038430E+02  0.00000000000E+00 0.  1.
        -15    1    1    2    0    0  0.24717006106E+01 -0.19269216400E+01  0.56906293682E+01  0.67352299531E+01  0.17770000000E+01 0.  1.
         15    1    1    2    0    0 -0.95925759560E+00  0.20810224108E+01  0.10871284673E+02  0.11251372754E+02  0.17770000000E+01 0. -1.
</event>
<event>
 6    1  0.3691007E-002  0.4628318E+02  0.7546771E-02  0.1314792E+00
        -11   -1    0    0    0    0  0.00000000000E+00  0.00000000000E+00  0.45600000000E+02  0.45600000000E+02  0.00000000000E+00 0.  1.
         11   -1    0    0    0    0 -0.00000000000E+00 -0.00000000000E+00 -0.45600000000E+02  0.45600000000E+02  0.00000000000E+00 0. -1.
        -11    1    1    2    0    0 -0.25913261847E+00  0.95515714506E+00  0.44905918255E+02  0.44916822786E+02  0.00000000000E+00 0.  1.
         11    1    1    2    0    0 -0.24036192315E+00  0.52051130751E+00 -0.36844728804E+02  0.36849189224E+02  0.00000000000E+00 0. -1.
        -15    1    1    2    0    0 -0.16576388270E-01 -0.22176750041E+01 -0.54745284485E+01  0.61681883834E+01  0.17770000000E+01 0. -1.
         15    1    1    2    0    0  0.51607092990E+00  0.74200655155E+00 -0.25866610026E+01  0.32657996065E+01  0.17770000000E+01 0. -1.
</event>
<event>
 6    1  0.3691007E-002  0.5062920E+02  0.7546771E-02  0.1295166E+00
        -11   -1    0    0    0    0  0.00000000000E+00  0.00000000000E+00  0.45600000000E+02  0.45600000000E+02  0.00000000000E+00 0.  1.
         11   -1    0    0    0    0 -0.00000000000E+00 -0.00000000000E+00 -0.45600000000E+02  0.45600000000E+02  0.00000000000E+00 0.  1.
        -11    1    1    2    0    0 -0.82281856201E-01  0.12336644709E+01  0.40551954672E+02  0.40570798933E+02  0.00000000000E+00 0.  1.
         11    1    1    2    0    0  0.15551723246E+00 -0.12299003513E+01 -0.39695641103E+02  0.39714994184E+02  0.00000000000E+00 0.  1.
        -15    1    1    2    0    0 -0.30659286243E+01 -0.76248937579E+00 -0.45268660053E+01  0.57992717825E+01  0.17770000000E+01 0.  1.
         15    1    1    2    0    0  0.29926932480E+01  0.75872525621E+00  0.36705524360E+01  0.51149350999E+01  0.17770000000E+01 0. -1.
</event>
<event>
 6    1  0.3691007E-002  0.4732811E+02  0.7546771E-02  0.1309853E+00
        -11   -1    0    0    0    0  0.00000000000E+00  0.00000000000E+00  0.45600000000E+02  0.45600000000E+02  0.00000000000E+00 0. -1.
         11   -1    0    0    0    0 -0.00000000000E+00 -0.00000000000E+00 -0.45600000000E+02  0.45600000000E+02  0.00000000000E+00 0.  1.
        -11    1    1    2    0    0 -0.13857188492E+01 -0.81505029620E+01  0.43085866935E+02  0.43871891284E+02  0.00000000000E+00 0. -1.
         11    1    1    2    0    0 -0.14297887933E+01  0.11041855766E+00 -0.27615406129E+02  0.27652615499E+02  0.00000000000E+00 0.  1.
        -15    1    1    2    0    0 -0.18849097698E+01  0.14374933480E+01 -0.79237887874E+01  0.84595171088E+01  0.17770000000E+01 0.  1.
         15    1    1    2    0    0  0.47004174123E+01  0.66025910563E+01 -0.75466720190E+01  0.11215976109E+02  0.17770000000E+01 0. -1.
</event>
<event>
 6    1  0.3691007E-002  0.4627324E+02  0.7546771E-02  0.1314839E+00
        -11   -1    0    0    0    0  0.00000000000E+00  0.00000000000E+00  0.45600000000E+02  0.45600000000E+02  0.00000000000E+00 0. -1.
         11   -1    0    0    0    0 -0.00000000000E+00 -0.00000000000E+00 -0.45600000000E+02  0.45600000000E+02  0.00000000000E+00 0. -1.
        -11    1    1    2    0    0 -0.13228061858E+01  0.31619351656E+01  0.44795825220E+02  0.44926758256E+02  0.00000000000E+00 0. -1.
         11    1    1    2    0    0 -0.80771400512E+00 -0.16558356903E+00 -0.26449449116E+02  0.26462297300E+02  0.00000000000E+00 0. -1.
        -15    1    1    2    0    0  0.31073408063E+01 -0.78088407275E+00 -0.54329682873E+01  0.65528787744E+01  0.17770000000E+01 0. -1.
         15    1    1    2    0    0 -0.97682061538E+00 -0.22154675239E+01 -0.12913407817E+02  0.13258065670E+02  0.17770000000E+01 0.  1.
</event>
<event>
 6    1  0.3691007E-002  0.3823008E+02  0.7546771E-02  0.1358694E+00
        -11   -1    0    0    0    0  0.00000000000E+00  0.00000000000E+00  0.45600000000E+02  0.45600000000E+02  0.00000000000E+00 0.  1.
         11   -1    0    0    0    0 -0.00000000000E+00 -0.00000000000E+00 -0.45600000000E+02  0.45600000000E+02  0.00000000000E+00 0. -1.
        -11    1    1    2    0    0  0.52247855047E+01 -0.27081630554E+01  0.38240251674E+02  0.38690430068E+02  0.00000000000E+00 0.  1.
         11    1    1    2    0    0  0.69969726339E+00  0.22832817173E+01 -0.37925622444E+02  0.38000734064E+02  0.00000000000E+00 0. -1.
        -15    1    1    2    0    0 -0.65019342529E+01 -0.21882590236E+01  0.47357019086E+01  0.85233929952E+01  0.17770000000E+01 0. -1.
         15    1    1    2    0    0  0.57745148488E+00  0.26131403617E+01 -0.50503311390E+01  0.59854428726E+01  0.17770000000E+01 0. -1.
</event>
<event>
 6    1  0.3691007E-002  0.2332188E+02  0.7546771E-02  0.1487528E+00
        -11   -1    0    0    0    0  0.00000000000E+00  0.00000000000E+00  0.45600000000E+02  0.45600000000E+02  0.00000000000E+00 0. -1.
         11   -1    0    0    0    0 -0.00000000000E+00 -0.00000000000E+00 -0.45600000000E+02  0.45600000000E+02  0.00000000000E+00 0.  1.
        -11    1    1    2    0    0  0.15497963409E+01 -0.59642664150E-02  0.26679981783E+02  0.26724957104E+02  0.00000000000E+00 0. -1.
         11    1    1    2    0    0 -0.10887349014E+00 -0.58161130084E+00 -0.30779291874E+02  0.30784979022E+02  0.00000000000E+00 0.  1.
        -15    1    1    2    0    0  0.47484635817E+01 -0.48729792501E+01  0.16929031999E+02  0.18331494390E+02  0.17770000000E+01 0. -1.
         15    1    1    2    0    0 -0.61893864324E+01  0.54605548173E+01 -0.12829721908E+02  0.15358569483E+02  0.17770000000E+01 0.  1.
</event>
<event>
 6    1  0.3691007E-002  0.4657550E+02  0.7546771E-02  0.1313395E+00
        -11   -1    0    0    0    0  0.00000000000E+00  0.00000000000E+00  0.45600000000E+02  0.45600000000E+02  0.00000000000E+00 0. -1.
         11   -1    0    0    0    0 -0.00000000000E+00 -0.00000000000E+00 -0.45600000000E+02  0.45600000000E+02  0.00000000000E+00 0.  1.
        -11    1    1    2    0    0 -0.51244526784E+00 -0.31609598058E+00  0.37039000952E+02  0.37043894347E+02  0.00000000000E+00 0. -1.
         11    1    1    2    0    0  0.12425772667E+01 -0.25734324457E+01 -0.44532904676E+02  0.44624501697E+02  0.00000000000E+00 0.  1.
        -15    1    1    2    0    0 -0.20551790228E+01  0.19104504609E+01  0.53445637670E+01  0.62925092482E+01  0.17770000000E+01 0. -1.
         15    1    1    2    0    0  0.13250470239E+01  0.97907796536E+00  0.21493399569E+01  0.32390947081E+01  0.17770000000E+01 0.  1.
</event>
<event>
 6    1  0.3691007E-002  0.4735255E+02  0.7546771E-02  0.1309739E+00
        -11   -1    0    0    0    0  0.00000000000E+00  0.00000000000E+00  0.45600000000E+02  0.45600000000E+02  0.00000000000E+00 0.  1.
         11   -1    0    0    0    0 -0.00000000000E+00 -0.00000000000E+00 -0.45600000000E+02  0.45600000000E+02  0.00000000000E+00 0.  1.
        -11    1    1    2    0    0 -0.67287005594E-01  0.16656229611E+01  0.39087998422E+02  0.39123528063E+02  0.00000000000E+00 0.  1.
         11    1    1    2    0    0  0.20882562704E+01  0.19550100131E+01 -0.43754043316E+02  0.43847453574E+02  0.00000000000E+00 0.  1.
        -15    1    1    2    0    0 -0.18397390594E+01 -0.28244200480E+01  0.49564978055E+01  0.62519267358E+01  0.17770000000E+01 0. -1.
         15    1    1    2    0    0 -0.18123020546E+00 -0.79621292624E+00 -0.29045291216E+00  0.19770916280E+01  0.17770000000E+01 0.  1.
</event>
<event>
 6    1  0.3691007E-002  0.3293236E+02  0.7546771E-02  0.1395100E+00
        -11   -1    0    0    0    0  0.00000000000E+00  0.00000000000E+00  0.45600000000E+02  0.45600000000E+02  0.00000000000E+00 0. -1.
         11   -1    0    0    0    0 -0.00000000000E+00 -0.00000000000E+00 -0.45600000000E+02  0.45600000000E+02  0.00000000000E+00 0. -1.
        -11    1    1    2    0    0  0.55985393652E+01  0.27501049617E+01  0.32750608527E+02  0.33339302320E+02  0.00000000000E+00 0. -1.
         11    1    1    2    0    0  0.47132734709E+01  0.54006907566E+01 -0.33056590067E+02  0.33824851135E+02  0.00000000000E+00 0. -1.
        -15    1    1    2    0    0 -0.27215068692E+01  0.65945391728E+01  0.25914123544E+00  0.73565909035E+01  0.17770000000E+01 0.  1.
         15    1    1    2    0    0 -0.75903059668E+01 -0.14745334891E+02  0.46840305033E-01  0.16679255641E+02  0.17770000000E+01 0. -1.
</event>
<event>
 6    1  0.3691007E-002  0.4649369E+02  0.7546771E-02  0.1313785E+00
        -11   -1    0    0    0    0  0.00000000000E+00  0.00000000000E+00  0.45600000000E+02  0.45600000000E+02  0.00000000000E+00 0.  1.
         11   -1    0    0    0    0 -0.00000000000E+00 -0.00000000000E+00 -0.45600000000E+02  0.45600000000E+02  0.00000000000E+00 0. -1.
        -11    1    1    2    0    0 -0.53620104351E-01  0.11509847905E+01  0.44691462536E+02  0.44706313477E+02  0.00000000000E+00 0.  1.
         11    1    1    2    0    0  0.19872890139E+01 -0.33002332866E+00 -0.39471248101E+02  0.39522622126E+02  0.00000000000E+00 0. -1.
        -15    1    1    2    0    0 -0.23519733047E+00 -0.56376603248E+00 -0.34581077412E+01  0.39356559902E+01  0.17770000000E+01 0.  1.
         15    1    1    2    0    0 -0.16984715791E+01 -0.25719542935E+00 -0.17621066938E+01  0.30354084065E+01  0.17770000000E+01 0. -1.
</event>
<event>
 6    1  0.3691007E-002  0.4650112E+02  0.7546771E-02  0.1313749E+00
        -11   -1    0    0    0    0  0.00000000000E+00  0.00000000000E+00  0.45600000000E+02  0.45600000000E+02  0.00000000000E+00 0. -1.
         11   -1    0    0    0    0 -0.00000000000E+00 -0.00000000000E+00 -0.45600000000E+02  0.45600000000E+02  0.00000000000E+00 0. -1.
        -11    1    1    2    0    0 -0.18397608291E+00  0.14821647476E+01  0.39567511584E+02  0.39595689569E+02  0.00000000000E+00 0. -1.
         11    1    1    2    0    0  0.12249863275E+01 -0.73667724129E+00 -0.44676017347E+02  0.44698879302E+02  0.00000000000E+00 0. -1.
        -15    1    1    2    0    0  0.84244286844E+00 -0.75432757041E-01  0.20324301521E+01  0.28291167191E+01  0.17770000000E+01 0. -1.
         15    1    1    2    0    0 -0.18834531130E+01 -0.67005474931E+00  0.30760756113E+01  0.40763144092E+01  0.17770000000E+01 0. -1.
</event>
<event>
 6    1  0.3691007E-002  0.4607311E+02  0.7546771E-02  0.1315802E+00
        -11   -1    0    0    0    0  0.00000000000E+00  0.00000000000E+00  0.45600000000E+02  0.45600000000E+02  0.00000000000E+00 0. -1.
         11   -1    0    0    0    0 -0.00000000000E+00 -0.00000000000E+00 -0.45600000000E+02  0.45600000000E+02  0.00000000000E+00 0. -1.
        -11    1    1    2    0    0  0.99864054470E+00  0.68201619922E+00  0.45110686587E+02  0.45126893018E+02  0.00000000000E+00 0. -1.
         11    1    1    2    0    0  0.65272394728E+00  0.10290985134E+01 -0.31360548232E+02  0.31384217016E+02  0.00000000000E+00 0. -1.
        -15    1    1    2    0    0  0.51245524401E+00  0.43626411829E-01 -0.54366973362E+01  0.57428146903E+01  0.17770000000E+01 0. -1.
         15    1    1    2    0    0 -0.21638197360E+01 -0.17547411245E+01 -0.83134410189E+01  0.89460752757E+01  0.17770000000E+01 0.  1.
</event>
<event>
 6    1  0.3691007E-002  0.4717293E+02  0.7546771E-02  0.1310577E+00
        -11   -1    0    0    0    0  0.00000000000E+00  0.00000000000E+00  0.45600000000E+02  0.45600000000E+02  0.00000000000E+00 0.  1.
         11   -1    0    0    0    0 -0.00000000000E+00 -0.00000000000E+00 -0.45600000000E+02  0.45600000000E+02  0.00000000000E+00 0. -1.
        -11    1    1    2    0    0 -0.71478953132E+00 -0.13259886896E+01  0.44001287751E+02  0.44027065469E+02  0.00000000000E+00 0.  1.
         11    1    1    2    0    0 -0.14347867748E+00  0.97533476079E+00 -0.37094836423E+02  0.37107933832E+02  0.00000000000E+00 0. -1.
        -15    1    1    2    0    0  0.25041857565E+01 -0.16682140087E+01 -0.14928161959E+01  0.38000149311E+01  0.17770000000E+01 0. -1.
         15    1    1    2    0    0 -0.16459175477E+01  0.20188679375E+01 -0.54136351326E+01  0.62649857678E+01  0.17770000000E+01 0.  1.
</event>
<event>
 6    1  0.3691007E-002  0.4758201E+02  0.7546771E-02  0.1308675E+00
        -11   -1    0    0    0    0  0.00000000000E+00  0.00000000000E+00  0.45600000000E+02  0.45600000000E+02  0.00000000000E+00 0. -1.
         11   -1    0    0    0    0 -0.00000000000E+00 -0.00000000000E+00 -0.45600000000E+02  0.45600000000E+02  0.00000000000E+00 0. -1.
        -11    1    1    2    0    0 -0.31206857757E+01 -0.30467216516E+01  0.43399402729E+02  0.43617993417E+02  0.00000000000E+00 0. -1.
         11    1    1    2    0    0  0.83516147508E+00 -0.11529511161E+01 -0.35451366133E+02  0.35479940130E+02  0.00000000000E+00 0. -1.
        -15    1    1    2    0    0  0.40772855936E+01  0.11193969794E+01 -0.21425071149E+01  0.50621510395E+01  0.17770000000E+01 0.  1.
         15    1    1    2    0    0 -0.17917612930E+01  0.30802757883E+01 -0.58055294815E+01  0.70399154130E+01  0.17770000000E+01 0. -1.
</event>
<event>
 6    1  0.3691007E-002  0.5244540E+02  0.7546771E-02  0.1287623E+00
        -11   -1    0    0    0    0  0.00000000000E+00  0.00000000000E+00  0.45600000000E+02  0.45600000000E+02  0.00000000000E+00 0. -1.
         11   -1    0    0    0    0 -0.00000000000E+00 -0.00000000000E+00 -0.45600000000E+02  0.45600000000E+02  0.00000000000E+00 0.  1.
        -11    1    1    2    0    0 -0.46006030741E+01  0.73752744451E+01  0.27152570117E+02  0.28510038333E+02  0.00000000000E+00 0. -1.
         11    1    1    2    0    0  0.10225243641E+01  0.34988092925E+00 -0.38739525828E+02  0.38754597587E+02  0.00000000000E+00 0.  1.
        -15    1    1    2    0    0  0.65611489531E+01 -0.12960441551E+02  0.86568120360E+01  0.17003524470E+02  0.17770000000E+01 0. -1.
         15    1    1    2    0    0 -0.29830702430E+01  0.52352861765E+01  0.29301436754E+01  0.69318396103E+01  0.17770000000E+01 0.  1.
</event>
<event>
 6    1  0.3691007E-002  0.4215890E+02  0.7546771E-02  0.1335858E+00
        -11   -1    0    0    0    0  0.00000000000E+00  0.00000000000E+00  0.45600000000E+02  0.45600000000E+02  0.00000000000E+00 0. -1.
         11   -1    0    0    0    0 -0.00000000000E+00 -0.00000000000E+00 -0.45600000000E+02  0.45600000000E+02  0.00000000000E+00 0. -1.
        -11    1    1    2    0    0 -0.36218454342E+00 -0.73666575442E+00  0.41872270803E+02  0.41880316573E+02  0.00000000000E+00 0. -1.
         11    1    1    2    0    0 -0.42704041440E+00 -0.78526332956E+00 -0.42447464613E+02  0.42456875227E+02  0.00000000000E+00 0. -1.
        -15    1    1    2    0    0  0.24026507233E+01  0.22856847115E+01  0.16701479080E+01  0.41163343077E+01  0.17770000000E+01 0. -1.
         15    1    1    2    0    0 -0.16134257654E+01 -0.76375562752E+00 -0.10949540983E+01  0.27464738915E+01  0.17770000000E+01 0. -1.
</event>
<event>
 6    1  0.3691007E-002  0.4636459E+02  0.7546771E-02  0.1314401E+00
        -11   -1    0    0    0    0  0.00000000000E+00  0.00000000000E+00  0.45600000000E+02  0.45600000000E+02  0.00000000000E+00 0. -1.
         11   -1    0    0    0    0 -0.00000000000E+00 -0.00000000000E+00 -0.45600000000E+02  0.45600000000E+02  0.00000000000E+00 0.  1.
        -11    1    1    2    0    0 -0.14587557282E+00 -0.15881094045E+01  0.18731246816E+02  0.18799015359E+02  0.00000000000E+00 0. -1.
         11    1    1    2    0    0  0.25291276167E+00  0.82632047936E+00 -0.44827080215E+02  0.44835408898E+02  0.00000000000E+00 0.  1.
        -15    1    1    2    0    0  0.20706780746E+01 -0.15504972831E+01  0.35944847241E+01  0.47717710492E+01  0.17770000000E+01 0.  1.
         15    1    1    2    0    0 -0.21777152635E+01  0.23122862083E+01  0.22501348675E+02  0.22793804695E+02  0.17770000000E+01 0. -1.
</event>
<event>
 6    1  0.3691007E-002  0.4718516E+02  0.7546771E-02  0.1310520E+00
        -11   -1    0    0    0    0  0.00000000000E+00  0.00000000000E+00  0.45600000000E+02  0.45600000000E+02  0.00000000000E+00 0.  1.
         11   -1    0    0    0    0 -0.00000000000E+00 -0.00000000000E+00 -0.45600000000E+02  0.45600000000E+02  0.00000000000E+00 0.  1.
        -11    1    1    2    0    0  0.59947041641E+00  0.87237065381E+00  0.25581288600E+02  0.25603177963E+02  0.00000000000E+00 0.  1.
         11    1    1    2    0    0 -0.11820483892E+01 -0.16940022465E+01 -0.43966347182E+02  0.44014844843E+02  0.00000000000E+00 0.  1.
        -15    1    1    2    0    0  0.29240788467E+01  0.27397813677E+01  0.19874702209E+01  0.48129415043E+01  0.17770000000E+01 0. -1.
         15    1    1    2    0    0 -0.23415008739E+01 -0.19181497749E+01  0.16397588361E+02  0.16769035690E+02  0.17770000000E+01 0.  1.
</event>
<event>
 6    1  0.3691007E-002  0.4673095E+02  0.7546771E-02  0.1312657E+00
        -11   -1    0    0    0    0  0.00000000000E+00  0.00000000000E+00  0.45600000000E+02  0.45600000000E+02  0.00000000000E+00 0. -1.
         11   -1    0    0    0    0 -0.00000000000E+00 -0.00000000000E+00 -0.45600000000E+02  0.45600000000E+02  0.00000000000E+00 0.  1.
        -11    1    1    2    0    0  0.16918945343E+01 -0.67666603787E+00  0.44431702506E+02  0.44469051841E+02  0.00000000000E+00 0. -1.
         11    1    1    2    0    0  0.50522443973E+00  0.35436072376E+00 -0.21908041186E+02  0.21916730866E+02  0.00000000000E+00 0.  1.
        -15    1    1    2    0    0 -0.19582145205E+01 -0.24482868735E+01 -0.20763707825E+02  0.21074107439E+02  0.17770000000E+01 0.  1.
         15    1    1    2    0    0 -0.23890445353E+00  0.27705921876E+01 -0.17599534956E+01  0.37401098533E+01  0.17770000000E+01 0. -1.
</event>
<event>
 6    1  0.3691007E-002  0.4625987E+02  0.7546771E-02  0.1314903E+00
        -11   -1    0    0    0    0  0.00000000000E+00  0.00000000000E+00  0.45600000000E+02  0.45600000000E+02  0.00000000000E+00 0. -1.
         11   -1    0    0    0    0 -0.00000000000E+00 -0.00000000000E+00 -0.45600000000E+02  0.45600000000E+02  0.00000000000E+00 0. -1.
        -11    1    1    2    0    0 -0.75336094592E+00 -0.89901312570E+00  0.44924824602E+02  0.44940133988E+02  0.00000000000E+00 0. -1.
         11    1    1    2    0    0  0.88857434082E+00 -0.18979163191E+01 -0.37168329619E+02  0.37227360602E+02  0.00000000000E+00 0. -1.
        -15    1    1    2    0    0  0.35401806507E+00  0.14784899508E+01 -0.43957265268E+01  0.49790965067E+01  0.17770000000E+01 0.  1.
         15    1    1    2    0    0 -0.48923145997E+00  0.13184394939E+01 -0.33607684568E+01  0.40534089038E+01  0.17770000000E+01 0. -1.
</event>
<event>
 6    1  0.3691007E-002  0.5144144E+02  0.7546771E-02  0.1291749E+00
        -11   -1    0    0    0    0  0.00000000000E+00  0.00000000000E+00  0.45600000000E+02  0.45600000000E+02  0.00000000000E+00 0.  1.
         11   -1    0    0    0    0 -0.00000000000E+00 -0.00000000000E+00 -0.45600000000E+02  0.45600000000E+02  0.00000000000E+00 0. -1.
        -11    1    1    2    0    0 -0.43362462119E+00 -0.25769136880E+01  0.39672587334E+02  0.39758555058E+02  0.00000000000E+00 0.  1.
         11    1    1    2    0    0 -0.23931291472E+01 -0.38027770561E+00 -0.24784194996E+02  0.24902369363E+02  0.00000000000E+00 0. -1.
        -15    1    1    2    0    0  0.92386453932E+01 -0.30930350165E+01 -0.94670663257E+00  0.99485384234E+01  0.17770000000E+01 0.  1.
         15    1    1    2    0    0 -0.64118916248E+01  0.60502264101E+01 -0.13941685705E+02  0.16590537156E+02  0.17770000000E+01 0. -1.
</event>
<event>
 6    1  0.3691007E-002  0.4575104E+02  0.7546771E-02  0.1317365E+00
        -11   -1    0    0    0    0  0.00000000000E+00  0.00000000000E+00  0.45600000000E+02  0.45600000000E+02  0.00000000000E+00 0.  1.
         11   -1    0    0    0    0 -0.00000000000E+00 -0.00000000000E+00 -0.45600000000E+02  0.45600000000E+02  0.00000000000E+00 0.  1.
        -11    1    1    2    0    0  0.86232576038E+00 -0.95083040277E-01  0.37771954263E+01  0.38755453539E+01  0.00000000000E+00 0.  1.
         11    1    1    2    0    0  0.15167505808E+01  0.10980964309E+01 -0.45410370326E+02  0.45448961278E+02  0.00000000000E+00 0.  1.
        -15    1    1    2    0    0 -0.99204776777E+00 -0.84562954699E+00  0.23160398532E+02  0.23265017457E+02  0.17770000000E+01 0.  1.
         15    1    1    2    0    0 -0.13870285734E+01 -0.15738384363E+00  0.18472776367E+02  0.18610475911E+02  0.17770000000E+01 0. -1.
</event>
<event>
 6    1  0.3691007E-002  0.4590319E+02  0.7546771E-02  0.1316625E+00
        -11   -1    0    0    0    0  0.00000000000E+00  0.00000000000E+00  0.45600000000E+02  0.45600000000E+02  0.00000000000E+00 0.  1.
         11   -1    0    0    0    0 -0.00000000000E+00 -0.00000000000E+00 -0.45600000000E+02  0.45600000000E+02  0.00000000000E+00 0.  1.
        -11    1    1    2    0    0  0.22196613021E+00  0.11161319782E+01  0.45282513638E+02  0.45296810715E+02  0.00000000000E+00 0.  1.
         11    1    1    2    0    0  0.67748668040E+00  0.50814976566E+00 -0.81993903122E+01  0.82430095159E+01  0.00000000000E+00 0.  1.
        -15    1    1    2    0    0 -0.53792316045E+00 -0.32191389094E+01 -0.28586200049E+02  0.28826737222E+02  0.17770000000E+01 0.  1.
         15    1    1    2    0    0 -0.36152965015E+00  0.15948571655E+01 -0.84969232768E+01  0.88334425474E+01  0.17770000000E+01 0.  1.
</event>
<event>
 6    1  0.3691007E-002  0.4986168E+02  0.7546771E-02  0.1298464E+00
        -11   -1    0    0    0    0  0.00000000000E+00  0.00000000000E+00  0.45600000000E+02  0.45600000000E+02  0.00000000000E+00 0. -1.
         11   -1    0    0    0    0 -0.00000000000E+00 -0.00000000000E+00 -0.45600000000E+02  0.45600000000E+02  0.00000000000E+00 0. -1.
        -11    1    1    2    0    0  0.26309907372E+01  0.27612950807E+01  0.41161998356E+02  0.41338323278E+02  0.00000000000E+00 0. -1.
         11    1    1    2    0    0 -0.57707698144E+00 -0.16418339182E+00 -0.32381508146E+02  0.32387065996E+02  0.00000000000E+00 0. -1.
        -15    1    1    2    0    0 -0.14127341278E+01  0.10629720088E+01 -0.11992320384E+02  0.12251498047E+02  0.17770000000E+01 0. -1.
         15    1    1    2    0    0 -0.64117962790E+00 -0.36600836977E+01  0.32118301744E+01  0.52231126792E+01  0.17770000000E+01 0.  1.
</event>
<event>
 6    1  0.3691007E-002  0.4615068E+02  0.7546771E-02  0.1315428E+00
        -11   -1    0    0    0    0  0.00000000000E+00  0.00000000000E+00  0.45600000000E+02  0.45600000000E+02  0.00000000000E+00 0. -1.
         11   -1    0    0    0    0 -0.00000000000E+00 -0.00000000000E+00 -0.45600000000E+02  0.45600000000E+02  0.00000000000E+00 0.  1.
        -11    1    1    2    0    0 -0.14636552788E+01  0.26673388873E+00  0.45024750799E+02  0.45049324282E+02  0.00000000000E+00 0. -1.
         11    1    1    2    0    0  0.48481443668E+00  0.40530700718E+00 -0.29915728642E+02  0.29922401958E+02  0.00000000000E+00 0.  1.
        -15    1    1    2    0    0 -0.10042580032E+01  0.14458985294E+01 -0.70442241917E+01  0.74751575340E+01  0.17770000000E+01 0. -1.
         15    1    1    2    0    0  0.19830988453E+01 -0.21179394253E+01 -0.80647979656E+01  0.87531162259E+01  0.17770000000E+01 0. -1.
</event>
<event>
 6    1  0.3691007E-002  0.4655321E+02  0.7546771E-02  0.1313501E+00
        -11   -1    0    0    0    0  0.00000000000E+00  0.00000000000E+00  0.45600000000E+02  0.45600000000E+02  0.00000000000E+00 0. -1.
         11   -1    0    0    0    0 -0.00000000000E+00 -0.00000000000E+00 -0.45600000000E+02  0.45600000000E+02  0.00000000000E+00 0. -1.
        -11    1    1    2    0    0 -0.15710010239E+01 -0.61023729795E+00  0.26410773993E+02  0.26464493509E+02  0.00000000000E+00 0. -1.
         11    1    1    2    0    0 -0.16491523835E+01  0.15560412172E+01 -0.44589184005E+02  0.44646794936E+02  0.00000000000E+00 0. -1.
        -15    1    1    2    0    0  0.44847206227E+01 -0.11657366682E+01  0.63519439823E+01  0.80608053194E+01  0.17770000000E+01 0.  1.
         15    1    1    2    0    0 -0.12645672152E+01  0.21993274889E+00  0.11826466030E+02  0.12027906235E+02  0.17770000000E+01 0.  1.
</event>
<event>
 6    1  0.3691007E-002  0.4631012E+02  0.7546771E-02  0.1314662E+00
        -11   -1    0    0    0    0  0.00000000000E+00  0.00000000000E+00  0.45600000000E+02  0.45600000000E+02  0.00000000000E+00 0.  1.
         11   -1    0    0    0    0 -0.00000000000E+00 -0.00000000000E+00 -0.45600000000E+02  0.45600000000E+02  0.00000000000E+00 0.  1.
        -11    1    1    2    0    0 -0.99658054217E+00 -0.25478428642E+00  0.38952610959E+02  0.38966190323E+02  0.00000000000E+00 0.  1.
         11    1    1    2    0    0  0.88916000166E+00 -0.11676210230E+01 -0.44865885738E+02  0.44889883575E+02  0.00000000000E+00 0.  1.
        -15    1    1    2    0    0 -0.59167686303E+00  0.70308217218E+00  0.15625640384E+01  0.25384525651E+01  0.17770000000E+01 0.  1.
         15    1    1    2    0    0  0.69909740355E+00  0.71932313720E+00  0.43507107409E+01  0.48054735361E+01  0.17770000000E+01 0. -1.
</event>
<event>
 6    1  0.3691007E-002  0.2232927E+02  0.7546771E-02  0.1500080E+00
        -11   -1    0    0    0    0  0.00000000000E+00  0.00000000000E+00  0.45600000000E+02  0.45600000000E+02  0.00000000000E+00 0. -1.
         11   -1    0    0    0    0 -0.00000000000E+00 -0.00000000000E+00 -0.45600000000E+02  0.45600000000E+02  0.00000000000E+00 0.  1.
        -11    1    1    2    0    0  0.33664296653E+01  0.17006199103E+01  0.24819201998E+02  0.25104137998E+02  0.00000000000E+00 0. -1.
         11    1    1    2    0    0  0.72320479688E+00 -0.17666932735E+01 -0.27296385668E+02  0.27363057227E+02  0.00000000000E+00 0.  1.
        -15    1    1    2    0    0  0.83119694847E+01 -0.98818596439E+00  0.17297298563E+02  0.19298176463E+02  0.17770000000E+01 0. -1.
         15    1    1    2    0    0 -0.12401603947E+02  0.10542593276E+01 -0.14820114893E+02  0.19434628312E+02  0.17770000000E+01 0.  1.
</event>
<event>
 6    1  0.3691007E-002  0.4731949E+02  0.7546771E-02  0.1309893E+00
        -11   -1    0    0    0    0  0.00000000000E+00  0.00000000000E+00  0.45600000000E+02  0.45600000000E+02  0.00000000000E+00 0. -1.
         11   -1    0    0    0    0 -0.00000000000E+00 -0.00000000000E+00 -0.45600000000E+02  0.45600000000E+02  0.00000000000E+00 0.  1.
        -11    1    1    2    0    0 -0.15048339551E+01  0.47035568537E+00  0.42438454517E+02  0.42467731062E+02  0.00000000000E+00 0. -1.
         11    1    1    2    0    0  0.49451984381E+00 -0.93158962066E+00 -0.43867837107E+02  0.43880514371E+02  0.00000000000E+00 0.  1.
        -15    1    1    2    0    0  0.14218517329E+01 -0.60496162587E+00  0.10296569632E+00  0.23571109125E+01  0.17770000000E+01 0. -1.
         15    1    1    2    0    0 -0.41153762156E+00  0.10661955612E+01  0.13264168928E+01  0.24946436544E+01  0.17770000000E+01 0. -1.
</event>
<event>
 6    1  0.3691007E-002  0.4826167E+02  0.7546771E-02  0.1305563E+00
        -11   -1    0    0    0    0  0.00000000000E+00  0.00000000000E+00  0.45600000000E+02  0.45600000000E+02  0.00000000000E+00 0.  1.
         11   -1    0    0    0    0 -0.00000000000E+00 -0.00000000000E+00 -0.45600000000E+02  0.45600000000E+02  0.00000000000E+00 0.  1.
        -11    1    1    2    0    0 -0.31811857496E+00 -0.73416156321E+00  0.40770837205E+02  0.40778687558E+02  0.00000000000E+00 0.  1.
         11    1    1    2    0    0 -0.82394308827E+00 -0.26904301776E+00 -0.42929580244E+02  0.42938329338E+02  0.00000000000E+00 0.  1.
        -15    1    1    2    0    0  0.16503895854E+01  0.44617707059E+00  0.40749806594E+01  0.47629881520E+01  0.17770000000E+01 0.  1.
         15    1    1    2    0    0 -0.50832792221E+00  0.55702751037E+00 -0.19162376196E+01  0.27199949519E+01  0.17770000000E+01 0.  1.
</event>
<event>
 6    1  0.3691007E-002  0.4858936E+02  0.7546771E-02  0.1304084E+00
        -11   -1    0    0    0    0  0.00000000000E+00  0.00000000000E+00  0.45600000000E+02  0.45600000000E+02  0.00000000000E+00 0. -1.
         11   -1    0    0    0    0 -0.00000000000E+00 -0.00000000000E+00 -0.45600000000E+02  0.45600000000E+02  0.00000000000E+00 0.  1.
        -11    1    1    2    0    0 -0.37154058246E+00  0.11286500645E+01  0.42594068056E+02  0.42610638659E+02  0.00000000000E+00 0. -1.
         11    1    1    2    0    0  0.69191395320E+00  0.31724174283E+00 -0.11336976376E+02  0.11362500631E+02  0.00000000000E+00 0.  1.
        -15    1    1    2    0    0  0.98039053634E+00  0.69648934340E+01 -0.33386148756E+01  0.79859241443E+01  0.17770000000E+01 0. -1.
         15    1    1    2    0    0 -0.13007639071E+01 -0.84107852413E+01 -0.27918476805E+02  0.29240936565E+02  0.17770000000E+01 0.  1.
</event>
<event>
 6    1  0.3691007E-002  0.4649405E+02  0.7546771E-02  0.1313783E+00
        -11   -1    0    0    0    0  0.00000000000E+00  0.00000000000E+00  0.45600000000E+02  0.45600000000E+02  0.00000000000E+00 0. -1.
         11   -1    0    0    0    0 -0.00000000000E+00 -0.00000000000E+00 -0.45600000000E+02  0.45600000000E+02  0.00000000000E+00 0.  1.
        -11    1    1    2    0    0 -0.39976913464E+00 -0.92701285964E+00  0.41115981704E+02  0.41128373657E+02  0.00000000000E+00 0. -1.
         11    1    1    2    0    0  0.60135282775E+00 -0.59567787498E+00 -0.44697932640E+02  0.44705946356E+02  0.00000000000E+00 0.  1.
        -15    1    1    2    0    0  0.32017499334E+00  0.95095561888E+00  0.15966881293E+01  0.25911330722E+01  0.17770000000E+01 0. -1.
         15    1    1    2    0    0 -0.52175868646E+00  0.57173511575E+00  0.19852628068E+01  0.27745469146E+01  0.17770000000E+01 0.  1.
</event>
<event>
 6    1  0.3691007E-002  0.4700017E+02  0.7546771E-02  0.1311387E+00
        -11   -1    0    0    0    0  0.00000000000E+00  0.00000000000E+00  0.45600000000E+02  0.45600000000E+02  0.00000000000E+00 0. -1.
         11   -1    0    0    0    0 -0.00000000000E+00 -0.00000000000E+00 -0.45600000000E+02  0.45600000000E+02  0.00000000000E+00 0. -1.
        -11    1    1    2    0    0 -0.67182884194E+00  0.34620459782E-01  0.22871024379E+02  0.22880915819E+02  0.00000000000E+00 0. -1.
         11    1    1    2    0    0  0.14134978270E+01  0.13769345398E+01 -0.44155756000E+02  0.44199827067E+02  0.00000000000E+00 0. -1.
        -15    1    1    2    0    0  0.27047499336E+01  0.36909788626E+01  0.10063082951E+02  0.11196533600E+02  0.17770000000E+01 0.  1.
         15    1    1    2    0    0 -0.34464189187E+01 -0.51025338622E+01  0.11221648669E+02  0.12922723515E+02  0.17770000000E+01 0. -1.
</event>
<event>
 6    1  0.3691007E-002  0.4639580E+02  0.7546771E-02  0.1314252E+00
        -11   -1    0    0    0    0  0.00000000000E+00  0.00000000000E+00  0.45600000000E+02  0.45600000000E+02  0.00000000000E+00 0. -1.
         11   -1    0    0    0    0 -0.00000000000E+00 -0.00000000000E+00 -0.45600000000E+02  0.45600000000E+02  0.00000000000E+00 0.  1.
        -11    1    1    2    0    0 -0.26945318502E+00 -0.45008669843E+00  0.31085306471E+02  0.31089732412E+02  0.00000000000E+00 0. -1.
         11    1    1    2    0    0  0.17309357508E+01  0.53290016423E+00 -0.44767582095E+02  0.44804202122E+02  0.00000000000E+00 0.  1.
        -15    1    1    2    0    0 -0.16654767940E+01  0.25946469492E+01  0.83548422793E+01  0.90811411318E+01  0.17770000000E+01 0. -1.
         15    1    1    2    0    0  0.20399422829E+00 -0.26774604150E+01  0.53274333449E+01  0.62249243339E+01  0.17770000000E+01 0.  1.
</event>
<event>
 6    1  0.3691007E-002  0.4656222E+02  0.7546771E-02  0.1313458E+00
        -11   -1    0    0    0    0  0.00000000000E+00  0.00000000000E+00  0.45600000000E+02  0.45600000000E+02  0.00000000000E+00 0. -1.
         11   -1    0    0    0    0 -0.00000000000E+00 -0.00000000000E+00 -0.45600000000E+02  0.45600000000E+02  0.00000000000E+00 0.  1.
        -11    1    1    2    0    0  0.81822528688E+00 -0.26014857764E+01  0.28898605149E+02  0.29026997786E+02  0.00000000000E+00 0. -1.
         11    1    1    2    0    0 -0.18926852052E+01  0.33807325662E+00 -0.44596355145E+02  0.44637780444E+02  0.00000000000E+00 0.  1.
        -15    1    1    2    0    0  0.70762957121E+00 -0.65894546113E+00  0.13019380524E+02  0.13175619414E+02  0.17770000000E+01 0. -1.
         15    1    1    2    0    0  0.36683034712E+00  0.29223579809E+01  0.26783694716E+01  0.43596023556E+01  0.17770000000E+01 0.  1.
</event>
<event>
 6    1  0.3691007E-002  0.4690430E+02  0.7546771E-02  0.1311838E+00
        -11   -1    0    0    0    0  0.00000000000E+00  0.00000000000E+00  0.45600000000E+02  0.45600000000E+02  0.00000000000E+00 0.  1.
         11   -1    0    0    0    0 -0.00000000000E+00 -0.00000000000E+00 -0.45600000000E+02  0.45600000000E+02  0.00000000000E+00 0.  1.
        -11    1    1    2    0    0  0.18743641727E+01 -0.49561555984E+00  0.39143503677E+02  0.39191488310E+02  0.00000000000E+00 0.  1.
         11    1    1    2    0    0 -0.69834637648E+00 -0.39642010642E+00 -0.44288420597E+02  0.44295699967E+02  0.00000000000E+00 0.  1.
        -15    1    1    2    0    0 -0.18258304158E+01  0.21230785729E+01  0.39536532241E+01  0.51604478634E+01  0.17770000000E+01 0.  1.
         15    1    1    2    0    0  0.64981261960E+00 -0.12310429066E+01  0.11912636961E+01  0.25523638597E+01  0.17770000000E+01 0. -1.
</event>
<event>
 6    1  0.3691007E-002  0.4605367E+02  0.7546771E-02  0.1315896E+00
        -11   -1    0    0    0    0  0.00000000000E+00  0.00000000000E+00  0.45600000000E+02  0.45600000000E+02  0.00000000000E+00 0. -1.
         11   -1    0    0    0    0 -0.00000000000E+00 -0.00000000000E+00 -0.45600000000E+02  0.45600000000E+02  0.00000000000E+00 0.  1.
        -11    1    1    2    0    0 -0.52663670633E+00  0.14524859184E+01  0.17264715737E+02  0.17333709097E+02  0.00000000000E+00 0. -1.
         11    1    1    2    0    0 -0.70071276812E+00  0.22057554211E+00 -0.45140352844E+02  0.45146329938E+02  0.00000000000E+00 0.  1.
        -15    1    1    2    0    0 -0.16085672757E+01  0.10114534233E+01  0.11621809354E+02  0.11909437785E+02  0.17770000000E+01 0. -1.
         15    1    1    2    0    0  0.28359167502E+01 -0.26845148839E+01  0.16253827753E+02  0.16810523181E+02  0.17770000000E+01 0. -1.
</event>
<event>
 6    1  0.3691007E-002  0.1843549E+02  0.7546771E-02  0.1558081E+00
        -11   -1    0    0    0    0  0.00000000000E+00  0.00000000000E+00  0.45600000000E+02  0.45600000000E+02  0.00000000000E+00 0.  1.
         11   -1    0    0    0    0 -0.00000000000E+00 -0.00000000000E+00 -0.45600000000E+02  0.45600000000E+02  0.00000000000E+00 0.  1.
        -11    1    1    2    0    0 -0.89716635958E+00 -0.13846576126E+02  0.26195603851E+02  0.29643586811E+02  0.00000000000E+00 0.  1.
         11    1    1    2    0    0 -0.35705662199E+00  0.15799591518E+02 -0.25365643953E+02  0.29885957818E+02  0.00000000000E+00 0.  1.
        -15    1    1    2    0    0  0.56899902268E+01 -0.78075370683E+01 -0.13633121456E+02  0.16803373277E+02  0.17770000000E+01 0. -1.
         15    1    1    2    0    0 -0.44357672453E+01  0.58545216765E+01  0.12803161558E+02  0.14867082094E+02  0.17770000000E+01 0.  1.
</event>
<event>
 6    1  0.3691007E-002  0.4979438E+02  0.7546771E-02  0.1298757E+00
        -11   -1    0    0    0    0  0.00000000000E+00  0.00000000000E+00  0.45600000000E+02  0.45600000000E+02  0.00000000000E+00 0.  1.
         11   -1    0    0    0    0 -0.00000000000E+00 -0.00000000000E+00 -0.45600000000E+02  0.45600000000E+02  0.00000000000E+00 0. -1.
        -11    1    1    2    0    0 -0.30824797095E+01  0.37524070321E+01  0.41119861090E+02  0.41405618167E+02  0.00000000000E+00 0.  1.
         11    1    1    2    0    0  0.77306720829E+00  0.19643305494E+01 -0.24788446228E+02  0.24878169020E+02  0.00000000000E+00 0. -1.
        -15    1    1    2    0    0  0.13297532540E+01 -0.48634145959E+00  0.35741184042E+01  0.42351886734E+01  0.17770000000E+01 0. -1.
         15    1    1    2    0    0  0.97965924721E+00 -0.52303961219E+01 -0.19905533267E+02  0.20681024140E+02  0.17770000000E+01 0. -1.
</event>
<event>
 6    1  0.3691007E-002  0.4740734E+02  0.7546771E-02  0.1309484E+00
        -11   -1    0    0    0    0  0.00000000000E+00  0.00000000000E+00  0.45600000000E+02  0.45600000000E+02  0.00000000000E+00 0. -1.
         11   -1    0    0    0    0 -0.00000000000E+00 -0.00000000000E+00 -0.45600000000E+02  0.45600000000E+02  0.00000000000E+00 0.  1.
        -11    1    1    2    0    0 -0.12283662442E+01 -0.86231829088E+00  0.43766931233E+02  0.43792656302E+02  0.00000000000E+00 0. -1.
         11    1    1    2    0    0  0.24820026414E+00  0.59986013687E+00 -0.40310529423E+02  0.40315756447E+02  0.00000000000E+00 0.  1.
        -15    1    1    2    0    0  0.22636348387E+01  0.11960943511E+01 -0.35287360037E+01  0.47079073019E+01  0.17770000000E+01 0. -1.
         15    1    1    2    0    0 -0.12834688587E+01 -0.93363619706E+00  0.72334193790E-01  0.23836799481E+01  0.17770000000E+01 0. -1.
</event>
<event>
 6    1  0.3691007E-002  0.4620702E+02  0.7546771E-02  0.1315157E+00
        -11   -1    0    0    0    0  0.00000000000E+00  0.00000000000E+00  0.45600000000E+02  0.45600000000E+02  0.00000000000E+00 0. -1.
         11   -1    0    0    0    0 -0.00000000000E+00 -0.00000000000E+00 -0.45600000000E+02  0.45600000000E+02  0.00000000000E+00 0. -1.
        -11    1    1    2    0    0 -0.94108740000E+00  0.24726731112E+00  0.33664461711E+02  0.33678520884E+02  0.00000000000E+00 0. -1.
         11    1    1    2    0    0 -0.12227458454E+01 -0.10076203452E+01 -0.44965077737E+02  0.44992984143E+02  0.00000000000E+00 0. -1.
        -15    1    1    2    0    0  0.70388216531E-01  0.10791895579E+01  0.77741945841E+01  0.80476974989E+01  0.17770000000E+01 0. -1.
         15    1    1    2    0    0  0.20934450288E+01 -0.31883652387E+00  0.35264214422E+01  0.44807974743E+01  0.17770000000E+01 0.  1.
</event>
<event>
 6    1  0.3691007E-002  0.5070648E+02  0.7546771E-02  0.1294838E+00
        -11   -1    0    0    0    0  0.00000000000E+00  0.00000000000E+00  0.45600000000E+02  0.45600000000E+02  0.00000000000E+00 0.  1.
         11   -1    0    0    0    0 -0.00000000000E+00 -0.00000000000E+00 -0.45600000000E+02  0.45600000000E+02  0.00000000000E+00 0. -1.
        -11    1    1    2    0    0 -0.14045446324E+00  0.11023198102E+01  0.40478267790E+02  0.40493517997E+02  0.00000000000E+00 0.  1.
         11    1    1    2    0    0 -0.94018843753E-01  0.70573966204E+00 -0.33667211531E+02  0.33674738904E+02  0.00000000000E+00 0. -1.
        -15    1    1    2    0    0  0.89414913865E+00 -0.61140059930E+01  0.22584422304E+01  0.68146065383E+01  0.17770000000E+01 0.  1.
         15    1    1    2    0    0 -0.65967583165E+00  0.43059465207E+01 -0.90694984903E+01  0.10217136561E+02  0.17770000000E+01 0. -1.
</event>
<event>
 6    1  0.3691007E-002  0.4610231E+02  0.7546771E-02  0.1315662E+00
        -11   -1    0    0    0    0  0.00000000000E+00  0.00000000000E+00  0.45600000000E+02  0.45600000000E+02  0.00000000000E+00 0.  1.
         11   -1    0    0    0    0 -0.00000000000E+00 -0.00000000000E+00 -0.45600000000E+02  0.45600000000E+02  0.00000000000E+00 0. -1.
        -11    1    1    2    0    0 -0.61473941897E+00 -0.75829771960E+00  0.45087119942E+02  0.45097686245E+02  0.00000000000E+00 0.  1.
         11    1    1    2    0    0 -0.89207399456E-02 -0.21521533947E+01 -0.21285591894E+02  0.21394117558E+02  0.00000000000E+00 0. -1.
        -15    1    1    2    0    0 -0.18045419803E+01  0.13638635436E+01 -0.69737608932E+01  0.75437103285E+01  0.17770000000E+01 0.  1.
         15    1    1    2    0    0  0.24282021392E+01  0.15465875707E+01 -0.16827767154E+02  0.17164485869E+02  0.17770000000E+01 0. -1.
</event>
<event>
 6    1  0.3691007E-002  0.4820641E+02  0.7546771E-02  0.1305814E+00
        -11   -1    0    0    0    0  0.00000000000E+00  0.00000000000E+00  0.45600000000E+02  0.45600000000E+02  0.00000000000E+00 0.  1.
         11   -1    0    0    0    0 -0.00000000000E+00 -0.00000000000E+00 -0.45600000000E+02  0.45600000000E+02  0.00000000000E+00 0.  1.
        -11    1    1    2    0    0 -0.47438417996E+00  0.42160749391E+00  0.41324360953E+02  0.41329234222E+02  0.00000000000E+00 0.  1.
         11    1    1    2    0    0  0.47233578886E+00 -0.28786622005E+01 -0.42894506614E+02  0.42993586671E+02  0.00000000000E+00 0.  1.
        -15    1    1    2    0    0  0.13954337470E+01 -0.89030713235E+00  0.14686893604E+01  0.28380732143E+01  0.17770000000E+01 0. -1.
         15    1    1    2    0    0 -0.13933853559E+01  0.33473618389E+01  0.10145630144E+00  0.40391058926E+01  0.17770000000E+01 0. -1.
</event>
<event>
 6    1  0.3691007E-002  0.4255737E+02  0.7546771E-02  0.1333703E+00
        -11   -1    0    0    0    0  0.00000000000E+00  0.00000000000E+00  0.45600000000E+02  0.45600000000E+02  0.00000000000E+00 0.  1.
         11   -1    0    0    0    0 -0.00000000000E+00 -0.00000000000E+00 -0.45600000000E+02  0.45600000000E+02  0.00000000000E+00 0. -1.
        -11    1    1    2    0    0  0.10290708507E+01  0.53928008449E+00  0.42437796005E+02  0.42453696418E+02  0.00000000000E+00 0.  1.
         11    1    1    2    0    0  0.13539260403E+01 -0.10060955778E+01 -0.42662632092E+02  0.42695966098E+02  0.00000000000E+00 0. -1.
        -15    1    1    2    0    0 -0.33879614982E+01 -0.86791080659E-01 -0.39277582108E+00  0.38467931645E+01  0.17770000000E+01 0. -1.
         15    1    1    2    0    0  0.10049646072E+01  0.55360657397E+00  0.61761190800E+00  0.22035443198E+01  0.17770000000E+01 0. -1.
</event>
<event>
 6    1  0.3691007E-002  0.4676009E+02  0.7546771E-02  0.1312519E+00
        -11   -1    0    0    0    0  0.00000000000E+00  0.00000000000E+00  0.45600000000E+02  0.45600000000E+02  0.00000000000E+00 0.  1.
         11   -1    0    0    0    0 -0.00000000000E+00 -0.00000000000E+00 -0.45600000000E+02  0.45600000000E+02  0.00000000000E+00 0. -1.
        -11    1    1    2    0    0  0.58051250502E+00  0.44252163169E+00  0.31991276789E+02  0.31999603291E+02  0.00000000000E+00 0.  1.
         11    1    1    2    0    0  0.18609782881E+01 -0.35057959520E+00 -0.44399543517E+02  0.44439910112E+02  0.00000000000E+00 0. -1.
        -15    1    1    2    0    0  0.74094169424E+00 -0.49979618037E+00  0.18369148643E+00  0.19975641112E+01  0.17770000000E+01 0.  1.
         15    1    1    2    0    0 -0.31824324874E+01  0.40785414387E+00  0.12224575242E+02  0.12762922486E+02  0.17770000000E+01 0.  1.
</event>
<event>
 6    1  0.3691007E-002  0.3432555E+02  0.7546771E-02  0.1384788E+00
        -11   -1    0    0    0    0  0.00000000000E+00  0.00000000000E+00  0.45600000000E+02  0.45600000000E+02  0.00000000000E+00 0. -1.
         11   -1    0    0    0    0 -0.00000000000E+00 -0.00000000000E+00 -0.45600000000E+02  0.45600000000E+02  0.00000000000E+00 0. -1.
        -11    1    1    2    0    0 -0.46254799316E+00 -0.99561656370E+00  0.29076574491E+02  0.29097291749E+02  0.00000000000E+00 0. -1.
         11    1    1    2    0    0  0.15585220465E+02 -0.14931749715E+02 -0.15868821359E+02  0.26789470652E+02  0.00000000000E+00 0. -1.
        -15    1    1    2    0    0 -0.18200520662E+02  0.19054102484E+02 -0.66652493891E+01  0.27237860641E+02  0.17770000000E+01 0.  1.
         15    1    1    2    0    0  0.30778481900E+01 -0.31267362054E+01 -0.65425037433E+01  0.80753769577E+01  0.17770000000E+01 0. -1.
</event>
<event>
 6    1  0.3691007E-002  0.3584578E+02  0.7546771E-02  0.1374169E+00
        -11   -1    0    0    0    0  0.00000000000E+00  0.00000000000E+00  0.45600000000E+02  0.45600000000E+02  0.00000000000E+00 0. -1.
         11   -1    0    0    0    0 -0.00000000000E+00 -0.00000000000E+00 -0.45600000000E+02  0.45600000000E+02  0.00000000000E+00 0.  1.
        -11    1    1    2    0    0  0.88742721468E-01  0.18710749106E+01  0.10414840280E+02  0.10581951363E+02  0.00000000000E+00 0. -1.
         11    1    1    2    0    0 -0.15796087575E+01  0.35369000306E+00 -0.39350961902E+02  0.39384241303E+02  0.00000000000E+00 0.  1.
        -15    1    1    2    0    0 -0.53168737628E+01  0.44835760759E+00  0.32445524771E+02  0.32929317907E+02  0.17770000000E+01 0. -1.
         15    1    1    2    0    0  0.68077397989E+01 -0.26731225212E+01 -0.35094031488E+01  0.83044894271E+01  0.17770000000E+01 0.  1.
</event>
<event>
 6    1  0.3691007E-002  0.4624752E+02  0.7546771E-02  0.1314963E+00
        -11   -1    0    0    0    0  0.00000000000E+00  0.00000000000E+00  0.45600000000E+02  0.45600000000E+02  0.00000000000E+00 0.  1.
         11   -1    0    0    0    0 -0.00000000000E+00 -0.00000000000E+00 -0.45600000000E+02  0.45600000000E+02  0.00000000000E+00 0. -1.
        -11    1    1    2    0    0  0.41655836025E+00 -0.75554215440E+00  0.36995375942E+02  0.37005434816E+02  0.00000000000E+00 0.  1.
         11    1    1    2    0    0 -0.15694593486E+01  0.40982995639E+00 -0.44923199537E+02  0.44952475125E+02  0.00000000000E+00 0. -1.
        -15    1    1    2    0    0  0.40442235289E+00 -0.65227223548E+00  0.14744005117E+01  0.24332287968E+01  0.17770000000E+01 0. -1.
         15    1    1    2    0    0  0.74847863545E+00  0.99798443349E+00  0.64534230831E+01  0.68088612621E+01  0.17770000000E+01 0.  1.
</event>
<event>
 6    1  0.3691007E-002  0.4679235E+02  0.7546771E-02  0.1312366E+00
        -11   -1    0    0    0    0  0.00000000000E+00  0.00000000000E+00  0.45600000000E+02  0.45600000000E+02  0.00000000000E+00 0. -1.
         11   -1    0    0    0    0 -0.00000000000E+00 -0.00000000000E+00 -0.45600000000E+02  0.45600000000E+02  0.00000000000E+00 0. -1.
        -11    1    1    2    0    0 -0.12136153260E+00 -0.97462006924E+00  0.29195711478E+02  0.29212226578E+02  0.00000000000E+00 0. -1.
         11    1    1    2    0    0  0.15643204027E+01 -0.49092116521E+01 -0.44107732127E+02  0.44407651263E+02  0.00000000000E+00 0. -1.
        -15    1    1    2    0    0  0.19732390876E+00  0.26386072291E+01  0.14112226265E+01  0.34857514450E+01  0.17770000000E+01 0.  1.
         15    1    1    2    0    0 -0.16402827788E+01  0.32452244922E+01  0.13500798022E+02  0.14094370714E+02  0.17770000000E+01 0. -1.
</event>
<event>
 6    1  0.3691007E-002  0.4925115E+02  0.7546771E-02  0.1301136E+00
        -11   -1    0    0    0    0  0.00000000000E+00  0.00000000000E+00  0.45600000000E+02  0.45600000000E+02  0.00000000000E+00 0.  1.
         11   -1    0    0    0    0 -0.00000000000E+00 -0.00000000000E+00 -0.45600000000E+02  0.45600000000E+02  0.00000000000E+00 0.  1.
        -11    1    1    2    0    0 -0.11608934622E+01 -0.65261606528E+00  0.41927706686E+02  0.41948851823E+02  0.00000000000E+00 0.  1.
         11    1    1    2    0    0  0.64176864025E+00  0.13773388730E-03 -0.23846277347E+02  0.23854911660E+02  0.00000000000E+00 0.  1.
        -15    1    1    2    0    0  0.38244749868E+00 -0.83212091480E+00 -0.21319531486E+02  0.21413053101E+02  0.17770000000E+01 0.  1.
         15    1    1    2    0    0  0.13667732328E+00  0.14845992462E+01  0.32381021469E+01  0.39831834161E+01  0.17770000000E+01 0.  1.
</event>
<event>
 6    1  0.3691007E-002  0.4759881E+02  0.7546771E-02  0.1308597E+00
        -11   -1    0    0    0    0  0.00000000000E+00  0.00000000000E+00  0.45600000000E+02  0.45600000000E+02  0.00000000000E+00 0. -1.
         11   -1    0    0    0    0 -0.00000000000E+00 -0.00000000000E+00 -0.45600000000E+02  0.45600000000E+02  0.00000000000E+00 0. -1.
        -11    1    1    2    0    0 -0.11404018443E+00  0.71917545790E+00  0.43595104817E+02  0.43601185563E+02  0.00000000000E+00 0. -1.
         11    1    1    2    0    0 -0.28154547978E+01  0.42768106047E+00 -0.22908107388E+02  0.23084433736E+02  0.00000000000E+00 0. -1.
        -15    1    1    2    0    0 -0.34337428874E+01 -0.93303722436E+00 -0.15512444763E+01  0.42691026111E+01  0.17770000000E+01 0.  1.
         15    1    1    2    0    0  0.63632378696E+01 -0.21381929401E+00 -0.19135752952E+02  0.20245278089E+02  0.17770000000E+01 0. -1.
</event>
<event>
 6    1  0.3691007E-002  0.4651651E+02  0.7546771E-02  0.1313676E+00
        -11   -1    0    0    0    0  0.00000000000E+00  0.00000000000E+00  0.45600000000E+02  0.45600000000E+02  0.00000000000E+00 0. -1.
         11   -1    0    0    0    0 -0.00000000000E+00 -0.00000000000E+00 -0.45600000000E+02  0.45600000000E+02  0.00000000000E+00 0. -1.
        -11    1    1    2    0    0 -0.23289900538E+00 -0.36030920731E+01  0.20068527048E+02  0.20390740357E+02  0.00000000000E+00 0. -1.
         11    1    1    2    0    0 -0.81070528775E+00 -0.40081092980E+00 -0.44674335935E+02  0.44683488938E+02  0.00000000000E+00 0. -1.
        -15    1    1    2    0    0  0.10923143310E+00  0.16818398122E+01  0.21891828181E+02  0.22028399551E+02  0.17770000000E+01 0.  1.
         15    1    1    2    0    0  0.93437286002E+00  0.23220631908E+01  0.27139807055E+01  0.40973711540E+01  0.17770000000E+01 0.  1.
</event>
<event>
 6    1  0.3691007E-002  0.4696169E+02  0.7546771E-02  0.1311568E+00
        -11   -1    0    0    0    0  0.00000000000E+00  0.00000000000E+00  0.45600000000E+02  0.45600000000E+02  0.00000000000E+00 0. -1.
         11   -1    0    0    0    0 -0.00000000000E+00 -0.00000000000E+00 -0.45600000000E+02  0.45600000000E+02  0.00000000000E+00 0.  1.
        -11    1    1    2    0    0 -0.14336157016E+00 -0.17855220998E+01  0.39138486847E+02  0.39179456280E+02  0.00000000000E+00 0. -1.
         11    1    1    2    0    0  0.20963450281E+01  0.33989447603E+01 -0.44057694290E+02  0.44238308219E+02  0.00000000000E+00 0.  1.
        -15    1    1    2    0    0  0.10322498366E+01 -0.14029542847E+01  0.15120470849E+01  0.29116723437E+01  0.17770000000E+01 0.  1.
         15    1    1    2    0    0 -0.29852332946E+01 -0.21046837576E+00  0.34071603580E+01  0.48705631569E+01  0.17770000000E+01 0. -1.
</event>
<event>
 6    1  0.3691007E-002  0.4667855E+02  0.7546771E-02  0.1312905E+00
        -11   -1    0    0    0    0  0.00000000000E+00  0.00000000000E+00  0.45600000000E+02  0.45600000000E+02  0.00000000000E+00 0.  1.
         11   -1    0    0    0    0 -0.00000000000E+00 -0.00000000000E+00 -0.45600000000E+02  0.45600000000E+02  0.00000000000E+00 0. -1.
        -11    1    1    2    0    0  0.11311044748E+01  0.56280456997E+00  0.24968041311E+02  0.24999984665E+02  0.00000000000E+00 0.  1.
         11    1    1    2    0    0 -0.19671120451E+01 -0.14161099810E+01 -0.44455422686E+02  0.44521449926E+02  0.00000000000E+00 0. -1.
        -15    1    1    2    0    0 -0.14870347738E+01  0.10005236536E+01  0.63830991348E+00  0.26033610095E+01  0.17770000000E+01 0. -1.
         15    1    1    2    0    0  0.23230423441E+01 -0.14721824258E+00  0.18849071461E+02  0.19075204400E+02  0.17770000000E+01 0. -1.
</event>
<event>
 6    1  0.3691007E-002  0.4731550E+02  0.7546771E-02  0.1309912E+00
        -11   -1    0    0    0    0  0.00000000000E+00  0.00000000000E+00  0.45600000000E+02  0.45600000000E+02  0.00000000000E+00 0.  1.
         11   -1    0    0    0    0 -0.00000000000E+00 -0.00000000000E+00 -0.45600000000E+02  0.45600000000E+02  0.00000000000E+00 0. -1.
        -11    1    1    2    0    0  0.17649033327E+01 -0.26500630423E+01  0.40378798562E+02  0.40504136717E+02  0.00000000000E+00 0.  1.
         11    1    1    2    0    0  0.68006423971E+00  0.15077698274E+01 -0.43853313045E+02  0.43884495237E+02  0.00000000000E+00 0. -1.
        -15    1    1    2    0    0 -0.30681417070E+01  0.15399379282E+01  0.18167178342E+01  0.42711936324E+01  0.17770000000E+01 0.  1.
         15    1    1    2    0    0  0.62317413453E+00 -0.39764471333E+00  0.16577966490E+01  0.25401744132E+01  0.17770000000E+01 0. -1.
</event>
<event>
 6    1  0.3691007E-002  0.4925826E+02  0.7546771E-02  0.1301105E+00
        -11   -1    0    0    0    0  0.00000000000E+00  0.00000000000E+00  0.45600000000E+02  0.45600000000E+02  0.00000000000E+00 0.  1.
         11   -1    0    0    0    0 -0.00000000000E+00 -0.00000000000E+00 -0.45600000000E+02  0.45600000000E+02  0.00000000000E+00 0. -1.
        -11    1    1    2    0    0 -0.33468645915E+00  0.64877806419E+00  0.16141355883E+02  0.16157855605E+02  0.00000000000E+00 0.  1.
         11    1    1    2    0    0 -0.79308900965E+00 -0.67923049784E+00 -0.41928736967E+02  0.41941737302E+02  0.00000000000E+00 0. -1.
        -15    1    1    2    0    0 -0.87402840612E+00  0.24714644523E+01  0.28436618909E+02  0.28612428875E+02  0.17770000000E+01 0.  1.
         15    1    1    2    0    0  0.20018038749E+01 -0.24410120187E+01 -0.26492378245E+01  0.44879782174E+01  0.17770000000E+01 0. -1.
</event>
<event>
 6    1  0.3691007E-002  0.5142003E+02  0.7546771E-02  0.1291838E+00
        -11   -1    0    0    0    0  0.00000000000E+00  0.00000000000E+00  0.45600000000E+02  0.45600000000E+02  0.00000000000E+00 0.  1.
         11   -1    0    0    0    0 -0.00000000000E+00 -0.00000000000E+00 -0.45600000000E+02  0.45600000000E+02  0.00000000000E+00 0.  1.
        -11    1    1    2    0    0  0.21222180644E+01 -0.66989452457E-01  0.29089726188E+02  0.29167112760E+02  0.00000000000E+00 0.  1.
         11    1    1    2    0    0  0.44235949275E+01 -0.78636462146E+01 -0.38743266619E+02  0.39779967724E+02  0.00000000000E+00 0.  1.
        -15    1    1    2    0    0 -0.82779514524E+01 -0.19889021091E+01  0.81130141403E+00  0.87347667875E+01  0.17770000000E+01 0. -1.
         15    1    1    2    0    0  0.17321384604E+01  0.99195377761E+01  0.88422390169E+01  0.13518152728E+02  0.17770000000E+01 0.  1.
</event>
<event>
 6    1  0.3691007E-002  0.4889827E+02  0.7546771E-02  0.1302701E+00
        -11   -1    0    0    0    0  0.00000000000E+00  0.00000000000E+00  0.45600000000E+02  0.45600000000E+02  0.00000000000E+00 0.  1.
         11   -1    0    0    0    0 -0.00000000000E+00 -0.00000000000E+00 -0.45600000000E+02  0.45600000000E+02  0.00000000000E+00 0.  1.
        -11    1    1    2    0    0 -0.56836729537E+01  0.24398819572E-01  0.41918156241E+02  0.42301732307E+02  0.00000000000E+00 0.  1.
         11    1    1    2    0    0  0.94694044030E+00  0.22417864396E+00 -0.37105585840E+02  0.37118343885E+02  0.00000000000E+00 0.  1.
        -15    1    1    2    0    0 -0.22628185938E+01  0.15703531305E+01 -0.18604170721E+01  0.37689836329E+01  0.17770000000E+01 0. -1.
         15    1    1    2    0    0  0.69995511072E+01 -0.18189305940E+01 -0.29521533287E+01  0.80109401748E+01  0.17770000000E+01 0.  1.
</event>
<event>
 6    1  0.3691007E-002  0.4623619E+02  0.7546771E-02  0.1315017E+00
        -11   -1    0    0    0    0  0.00000000000E+00  0.00000000000E+00  0.45600000000E+02  0.45600000000E+02  0.00000000000E+00 0.  1.
         11   -1    0    0    0    0 -0.00000000000E+00 -0.00000000000E+00 -0.45600000000E+02  0.45600000000E+02  0.00000000000E+00 0. -1.
        -11    1    1    2    0    0 -0.14417533453E+01  0.10799861055E+01  0.44927707400E+02  0.44963806722E+02  0.00000000000E+00 0.  1.
         11    1    1    2    0    0 -0.48689648434E+00  0.17952465028E+00 -0.36962646554E+02  0.36966289205E+02  0.00000000000E+00 0. -1.
        -15    1    1    2    0    0  0.16786805535E+01 -0.29244173301E+00 -0.57753319698E+01  0.62781907370E+01  0.17770000000E+01 0.  1.
         15    1    1    2    0    0  0.24996927608E+00 -0.96706902282E+00 -0.21897288765E+01  0.29917133363E+01  0.17770000000E+01 0. -1.
</event>
<event>
 6    1  0.3691007E-002  0.4770381E+02  0.7546771E-02  0.1308113E+00
        -11   -1    0    0    0    0  0.00000000000E+00  0.00000000000E+00  0.45600000000E+02  0.45600000000E+02  0.00000000000E+00 0.  1.
         11   -1    0    0    0    0 -0.00000000000E+00 -0.00000000000E+00 -0.45600000000E+02  0.45600000000E+02  0.00000000000E+00 0. -1.
        -11    1    1    2    0    0  0.60886183964E+00  0.24131304167E+00  0.43491258921E+02  0.43496190032E+02  0.00000000000E+00 0.  1.
         11    1    1    2    0    0 -0.20765729864E+00  0.17762259519E+01 -0.90493050234E+01  0.92243168632E+01  0.00000000000E+00 0. -1.
        -15    1    1    2    0    0 -0.21148081314E+01 -0.47690386171E+01 -0.34342123017E+02  0.34781536554E+02  0.17770000000E+01 0.  1.
         15    1    1    2    0    0  0.17136035905E+01  0.27514996236E+01 -0.99830880927E-01  0.36979565504E+01  0.17770000000E+01 0. -1.
</event>
<event>
 6    1  0.3691007E-002  0.4844007E+02  0.7546771E-02  0.1304756E+00
        -11   -1    0    0    0    0  0.00000000000E+00  0.00000000000E+00  0.45600000000E+02  0.45600000000E+02  0.00000000000E+00 0. -1.
         11   -1    0    0    0    0 -0.00000000000E+00 -0.00000000000E+00 -0.45600000000E+02  0.45600000000E+02  0.00000000000E+00 0.  1.
        -11    1    1    2    0    0  0.16980910662E+00  0.55317337747E+00  0.11435489352E+02  0.11450120202E+02  0.00000000000E+00 0. -1.
         11    1    1    2    0    0 -0.32262125584E+01  0.78777451285E+00 -0.42630772934E+02  0.42759932613E+02  0.00000000000E+00 0.  1.
        -15    1    1    2    0    0  0.66087571533E+00 -0.10391190761E+01  0.33272538004E+02  0.33342705940E+02  0.17770000000E+01 0. -1.
         15    1    1    2    0    0  0.23955277364E+01 -0.30182881420E+00 -0.20772544220E+01  0.36472412455E+01  0.17770000000E+01 0.  1.
</event>
<event>
 6    1  0.3691007E-002  0.4666685E+02  0.7546771E-02  0.1312961E+00
        -11   -1    0    0    0    0  0.00000000000E+00  0.00000000000E+00  0.45600000000E+02  0.45600000000E+02  0.00000000000E+00 0. -1.
         11   -1    0    0    0    0 -0.00000000000E+00 -0.00000000000E+00 -0.45600000000E+02  0.45600000000E+02  0.00000000000E+00 0. -1.
        -11    1    1    2    0    0  0.68762505427E+00  0.28267387147E-02  0.44527842860E+02  0.44533151988E+02  0.00000000000E+00 0. -1.
         11    1    1    2    0    0  0.19658716242E+00  0.62968810651E+00 -0.39271719540E+02  0.39277259442E+02  0.00000000000E+00 0. -1.
        -15    1    1    2    0    0 -0.20881191544E+01 -0.25235965473E+00 -0.40528169881E+01  0.48996919839E+01  0.17770000000E+01 0.  1.
         15    1    1    2    0    0  0.12039069377E+01 -0.38015519050E+00 -0.12033063320E+01  0.24898965866E+01  0.17770000000E+01 0. -1.
</event>
<event>
 6    1  0.3691007E-002  0.4679098E+02  0.7546771E-02  0.1312373E+00
        -11   -1    0    0    0    0  0.00000000000E+00  0.00000000000E+00  0.45600000000E+02  0.45600000000E+02  0.00000000000E+00 0. -1.
         11   -1    0    0    0    0 -0.00000000000E+00 -0.00000000000E+00 -0.45600000000E+02  0.45600000000E+02  0.00000000000E+00 0.  1.
        -11    1    1    2    0    0  0.28002804583E+01 -0.53713041769E+00  0.28797811626E+02  0.28938625298E+02  0.00000000000E+00 0. -1.
         11    1    1    2    0    0  0.19889764766E+01  0.13347038142E+01 -0.44344374581E+02  0.44409019565E+02  0.00000000000E+00 0.  1.
        -15    1    1    2    0    0 -0.33058368664E+01  0.24023767490E+01  0.10763442737E+02  0.11649437754E+02  0.17770000000E+01 0.  1.
         15    1    1    2    0    0 -0.14834200686E+01 -0.31999501455E+01  0.47831202183E+01  0.62029173827E+01  0.17770000000E+01 0. -1.
</event>
<event>
 6    1  0.3691007E-002  0.4861040E+02  0.7546771E-02  0.1303989E+00
        -11   -1    0    0    0    0  0.00000000000E+00  0.00000000000E+00  0.45600000000E+02  0.45600000000E+02  0.00000000000E+00 0. -1.
         11   -1    0    0    0    0 -0.00000000000E+00 -0.00000000000E+00 -0.45600000000E+02  0.45600000000E+02  0.00000000000E+00 0. -1.
        -11    1    1    2    0    0  0.93171369995E+00  0.14901439050E+01  0.23911858748E+02  0.23976355187E+02  0.00000000000E+00 0. -1.
         11    1    1    2    0    0 -0.51291809907E+00 -0.75261240951E+00 -0.42579861222E+02  0.42589600751E+02  0.00000000000E+00 0. -1.
        -15    1    1    2    0    0  0.20483988729E+01 -0.59511802963E+00  0.20757292455E+02  0.20942135099E+02  0.17770000000E+01 0.  1.
         15    1    1    2    0    0 -0.24671944738E+01 -0.14241346591E+00 -0.20892899815E+01  0.36919089633E+01  0.17770000000E+01 0. -1.
</event>
<event>
 6    1  0.3691007E-002  0.4868790E+02  0.7546771E-02  0.1303641E+00
        -11   -1    0    0    0    0  0.00000000000E+00  0.00000000000E+00  0.45600000000E+02  0.45600000000E+02  0.00000000000E+00 0.  1.
         11   -1    0    0    0    0 -0.00000000000E+00 -0.00000000000E+00 -0.45600000000E+02  0.45600000000E+02  0.00000000000E+00 0. -1.
        -11    1    1    2    0    0  0.68517715265E+00 -0.31630556000E+01  0.40174009910E+02  0.40304161828E+02  0.00000000000E+00 0.  1.
         11    1    1    2    0    0 -0.93632411957E+00  0.71022766263E-01 -0.42501730492E+02  0.42512102299E+02  0.00000000000E+00 0. -1.
        -15    1    1    2    0    0 -0.12776379217E+01  0.24494990305E+01 -0.16853745847E+01  0.36919670435E+01  0.17770000000E+01 0. -1.
         15    1    1    2    0    0  0.15287848886E+01  0.64253380323E+00  0.40130951670E+01  0.46917688289E+01  0.17770000000E+01 0. -1.
</event>
<event>
 6    1  0.3691007E-002  0.3341559E+02  0.7546771E-02  0.1391457E+00
        -11   -1    0    0    0    0  0.00000000000E+00  0.00000000000E+00  0.45600000000E+02  0.45600000000E+02  0.00000000000E+00 0.  1.
         11   -1    0    0    0    0 -0.00000000000E+00 -0.00000000000E+00 -0.45600000000E+02  0.45600000000E+02  0.00000000000E+00 0. -1.
        -11    1    1    2    0    0 -0.54941608908E+01  0.41571361744E+01  0.35301721910E+02  0.35967751596E+02  0.00000000000E+00 0.  1.
         11    1    1    2    0    0 -0.40545978171E+01 -0.18149773360E+00 -0.10546116687E+02  0.11300145223E+02  0.00000000000E+00 0. -1.
        -15    1    1    2    0    0  0.96404074330E+01 -0.44865968072E+01  0.65218090558E+01  0.12599949553E+02  0.17770000000E+01 0.  1.
         15    1    1    2    0    0 -0.91648725078E-01  0.51095836641E+00 -0.31277414279E+02  0.31332153627E+02  0.17770000000E+01 0. -1.
</event>
<event>
 6    1  0.3691007E-002  0.4178479E+02  0.7546771E-02  0.1337906E+00
        -11   -1    0    0    0    0  0.00000000000E+00  0.00000000000E+00  0.45600000000E+02  0.45600000000E+02  0.00000000000E+00 0. -1.
         11   -1    0    0    0    0 -0.00000000000E+00 -0.00000000000E+00 -0.45600000000E+02  0.45600000000E+02  0.00000000000E+00 0.  1.
        -11    1    1    2    0    0 -0.76276143690E+00 -0.15388670479E+01  0.41817815522E+02  0.41853071713E+02  0.00000000000E+00 0. -1.
         11    1    1    2    0    0  0.17983760197E+01  0.34575298687E+01 -0.41563008417E+02  0.41745327137E+02  0.00000000000E+00 0.  1.
        -15    1    1    2    0    0 -0.80121058569E+00 -0.32759302872E+01 -0.23913903292E+01  0.45000149284E+01  0.17770000000E+01 0. -1.
         15    1    1    2    0    0 -0.23440399707E+00  0.13572674665E+01  0.21365832245E+01  0.31015862207E+01  0.17770000000E+01 0.  1.
</event>
<event>
 6    1  0.3691007E-002  0.4727350E+02  0.7546771E-02  0.1310107E+00
        -11   -1    0    0    0    0  0.00000000000E+00  0.00000000000E+00  0.45600000000E+02  0.45600000000E+02  0.00000000000E+00 0. -1.
         11   -1    0    0    0    0 -0.00000000000E+00 -0.00000000000E+00 -0.45600000000E+02  0.45600000000E+02  0.00000000000E+00 0. -1.
        -11    1    1    2    0    0 -0.16840196580E+01 -0.94962658723E+00  0.43883931691E+02  0.43926497397E+02  0.00000000000E+00 0. -1.
         11    1    1    2    0    0  0.60324184582E+00  0.52371927931E+00 -0.34653876161E+02  0.34663082892E+02  0.00000000000E+00 0. -1.
        -15    1    1    2    0    0  0.21905761402E+01  0.14304026724E+01 -0.73322783225E-01  0.31635076832E+01  0.17770000000E+01 0.  1.
         15    1    1    2    0    0 -0.11097983280E+01 -0.10044953645E+01 -0.91567327466E+01  0.94469120277E+01  0.17770000000E+01 0.  1.
</event>
<event>
 6    1  0.3691007E-002  0.3492240E+02  0.7546771E-02  0.1380544E+00
        -11   -1    0    0    0    0  0.00000000000E+00  0.00000000000E+00  0.45600000000E+02  0.45600000000E+02  0.00000000000E+00 0.  1.
         11   -1    0    0    0    0 -0.00000000000E+00 -0.00000000000E+00 -0.45600000000E+02  0.45600000000E+02  0.00000000000E+00 0. -1.
        -11    1    1    2    0    0 -0.14227348087E+00  0.79463522313E+00  0.45279088136E+01  0.45993091987E+01  0.00000000000E+00 0.  1.
         11    1    1    2    0    0 -0.17340550983E+01 -0.63902606162E+00 -0.41111707394E+02  0.41153223279E+02  0.00000000000E+00 0. -1.
        -15    1    1    2    0    0 -0.10784997681E+02 -0.40888663452E+01  0.88167649555E+01  0.14626280328E+02  0.17770000000E+01 0.  1.
         15    1    1    2    0    0  0.12661326260E+02  0.39332571837E+01  0.27767033625E+02  0.30821187194E+02  0.17770000000E+01 0. -1.
</event>
<event>
 6    1  0.3691007E-002  0.4703773E+02  0.7546771E-02  0.1311210E+00
        -11   -1    0    0    0    0  0.00000000000E+00  0.00000000000E+00  0.45600000000E+02  0.45600000000E+02  0.00000000000E+00 0.  1.
         11   -1    0    0    0    0 -0.00000000000E+00 -0.00000000000E+00 -0.45600000000E+02  0.45600000000E+02  0.00000000000E+00 0. -1.
        -11    1    1    2    0    0 -0.19526296349E+00 -0.99799417431E+00  0.44150556358E+02  0.44162266096E+02  0.00000000000E+00 0.  1.
         11    1    1    2    0    0  0.10429129741E+01  0.32971284863E+00 -0.33728712147E+02  0.33746442792E+02  0.00000000000E+00 0. -1.
        -15    1    1    2    0    0  0.14443805890E+00  0.62386153659E+00 -0.11011195165E+02  0.11172028174E+02  0.17770000000E+01 0. -1.
         15    1    1    2    0    0 -0.99208806951E+00  0.44419789098E-01  0.58935095349E+00  0.21192629383E+01  0.17770000000E+01 0.  1.
</event>
<event>
 6    1  0.3691007E-002  0.4662390E+02  0.7546771E-02  0.1313165E+00
        -11   -1    0    0    0    0  0.00000000000E+00  0.00000000000E+00  0.45600000000E+02  0.45600000000E+02  0.00000000000E+00 0.  1.
         11   -1    0    0    0    0 -0.00000000000E+00 -0.00000000000E+00 -0.45600000000E+02  0.45600000000E+02  0.00000000000E+00 0. -1.
        -11    1    1    2    0    0  0.42242994655E+00 -0.50193771885E+00  0.33033623228E+02  0.33040136987E+02  0.00000000000E+00 0.  1.
         11    1    1    2    0    0 -0.13307533985E+01 -0.10178409563E+01 -0.44544600886E+02  0.44576096430E+02  0.00000000000E+00 0. -1.
        -15    1    1    2    0    0 -0.12941849597E+01  0.88333041435E+00  0.10069921744E+02  0.10344865405E+02  0.17770000000E+01 0.  1.
         15    1    1    2    0    0  0.22025084116E+01  0.63644826075E+00  0.14410559140E+01  0.32389011777E+01  0.17770000000E+01 0. -1.
</event>
<event>
 6    1  0.3691007E-002  0.4712258E+02  0.7546771E-02  0.1310813E+00
        -11   -1    0    0    0    0  0.00000000000E+00  0.00000000000E+00  0.45600000000E+02  0.45600000000E+02  0.00000000000E+00 0. -1.
         11   -1    0    0    0    0 -0.00000000000E+00 -0.00000000000E+00 -0.45600000000E+02  0.45600000000E+02  0.00000000000E+00 0. -1.
        -11    1    1    2    0    0  0.80008428945E+00 -0.42943600917E+00  0.44068069698E+02  0.44077424121E+02  0.00000000000E+00 0. -1.
         11    1    1    2    0    0 -0.76434259809E+00 -0.21194023201E+01 -0.38378076305E+02  0.38444152048E+02  0.00000000000E+00 0. -1.
        -15    1    1    2    0    0  0.31481475629E+00  0.32726911598E+01 -0.55913909896E+01  0.67253994645E+01  0.17770000000E+01 0. -1.
         15    1    1    2    0    0 -0.35055644765E+00 -0.72385283052E+00 -0.98602403530E-01  0.19530243668E+01  0.17770000000E+01 0.  1.
</event>
<event>
 6    1  0.3691007E-002  0.4659932E+02  0.7546771E-02  0.1313282E+00
        -11   -1    0    0    0    0  0.00000000000E+00  0.00000000000E+00  0.45600000000E+02  0.45600000000E+02  0.00000000000E+00 0. -1.
         11   -1    0    0    0    0 -0.00000000000E+00 -0.00000000000E+00 -0.45600000000E+02  0.45600000000E+02  0.00000000000E+00 0. -1.
        -11    1    1    2    0    0  0.49810274268E+00  0.27239523470E+00  0.32308284346E+02  0.32313271931E+02  0.00000000000E+00 0. -1.
         11    1    1    2    0    0 -0.11296953063E+01  0.19088181131E+01 -0.44545488214E+02  0.44600676209E+02  0.00000000000E+00 0. -1.
        -15    1    1    2    0    0  0.46198490950E+00  0.12241493040E+01  0.10254618222E+01  0.24333665002E+01  0.17770000000E+01 0. -1.
         15    1    1    2    0    0  0.16960765411E+00 -0.34053626518E+01  0.11211742046E+02  0.11852685360E+02  0.17770000000E+01 0. -1.
</event>
<event>
 6    1  0.3691007E-002  0.4888476E+02  0.7546771E-02  0.1302761E+00
        -11   -1    0    0    0    0  0.00000000000E+00  0.00000000000E+00  0.45600000000E+02  0.45600000000E+02  0.00000000000E+00 0. -1.
         11   -1    0    0    0    0 -0.00000000000E+00 -0.00000000000E+00 -0.45600000000E+02  0.45600000000E+02  0.00000000000E+00 0. -1.
        -11    1    1    2    0    0  0.53412398355E+01 -0.24152622753E+01  0.41907240300E+02  0.42315235134E+02  0.00000000000E+00 0. -1.
         11    1    1    2    0    0 -0.13941127377E+01 -0.36768063983E+01 -0.22763850792E+02  0.23100981765E+02  0.00000000000E+00 0. -1.
        -15    1    1    2    0    0  0.96969454755E+00  0.95028142658E+01 -0.16181656206E+02  0.18874520207E+02  0.17770000000E+01 0.  1.
         15    1    1    2    0    0 -0.49168216453E+01 -0.34107455921E+01 -0.29617333020E+01  0.69092628940E+01  0.17770000000E+01 0. -1.
</event>
<event>
 6    1  0.3691007E-002  0.4784232E+02  0.7546771E-02  0.1307476E+00
        -11   -1    0    0    0    0  0.00000000000E+00  0.00000000000E+00  0.45600000000E+02  0.45600000000E+02  0.00000000000E+00 0. -1.
         11   -1    0    0    0    0 -0.00000000000E+00 -0.00000000000E+00 -0.45600000000E+02  0.45600000000E+02  0.00000000000E+00 0.  1.
        -11    1    1    2    0    0  0.14138303154E+00 -0.18129604601E+01  0.43319531981E+02  0.43357682893E+02  0.00000000000E+00 0. -1.
         11    1    1    2    0    0 -0.10295029196E+01  0.20162501276E+01 -0.40825928026E+02  0.40888648058E+02  0.00000000000E+00 0.  1.
        -15    1    1    2    0    0  0.11670458647E+01 -0.24257709378E+01 -0.25218151946E+01  0.40943426296E+01  0.17770000000E+01 0.  1.
         15    1    1    2    0    0 -0.27892597664E+00  0.22224812703E+01  0.28211239587E-01  0.28593264192E+01  0.17770000000E+01 0.  1.
</event>
<event>
 6    1  0.3691007E-002  0.4691633E+02  0.7546771E-02  0.1311781E+00
        -11   -1    0    0    0    0  0.00000000000E+00  0.00000000000E+00  0.45600000000E+02  0.45600000000E+02  0.00000000000E+00 0.  1.
         11   -1    0    0    0    0 -0.00000000000E+00 -0.00000000000E+00 -0.45600000000E+02  0.45600000000E+02  0.00000000000E+00 0.  1.
        -11    1    1    2    0    0  0.25370067675E+01  0.37435145564E+00  0.44209348087E+02  0.44283665167E+02  0.00000000000E+00 0.  1.
         11    1    1    2    0    0 -0.17979221762E+01 -0.76300457137E+00 -0.39684247177E+02  0.39732281260E+02  0.00000000000E+00 0.  1.
        -15    1    1    2    0    0  0.12463986411E+01 -0.27082160050E+00 -0.37337680290E+01  0.43273093957E+01  0.17770000000E+01 0.  1.
         15    1    1    2    0    0 -0.19854832324E+01  0.65947471624E+00 -0.79133288030E+00  0.28567441774E+01  0.17770000000E+01 0. -1.
</event>
<event>
 6    1  0.3691007E-002  0.5082855E+02  0.7546771E-02  0.1294321E+00
        -11   -1    0    0    0    0  0.00000000000E+00  0.00000000000E+00  0.45600000000E+02  0.45600000000E+02  0.00000000000E+00 0. -1.
         11   -1    0    0    0    0 -0.00000000000E+00 -0.00000000000E+00 -0.45600000000E+02  0.45600000000E+02  0.00000000000E+00 0.  1.
        -11    1    1    2    0    0  0.20525570803E+00  0.69862031015E+00  0.40364885664E+02  0.40371452722E+02  0.00000000000E+00 0. -1.
         11    1    1    2    0    0  0.84402990656E+00 -0.10859092490E+01 -0.23075596986E+02  0.23116547355E+02  0.00000000000E+00 0.  1.
        -15    1    1    2    0    0  0.36296919937E+01  0.23670175215E+01  0.37470790526E+01  0.59979801886E+01  0.17770000000E+01 0. -1.
         15    1    1    2    0    0 -0.46789776083E+01 -0.19797285826E+01 -0.21036367731E+02  0.21714019734E+02  0.17770000000E+01 0.  1.
</event>
<event>
 6    1  0.3691007E-002  0.4577362E+02  0.7546771E-02  0.1317255E+00
        -11   -1    0    0    0    0  0.00000000000E+00  0.00000000000E+00  0.45600000000E+02  0.45600000000E+02  0.00000000000E+00 0. -1.
         11   -1    0    0    0    0 -0.00000000000E+00 -0.00000000000E+00 -0.45600000000E+02  0.45600000000E+02  0.00000000000E+00 0. -1.
        -11    1    1    2    0    0 -0.62792928210E+00  0.68232704790E+00  0.45416919144E+02  0.45426384512E+02  0.00000000000E+00 0. -1.
         11    1    1    2    0    0  0.65277064863E+00 -0.25942713715E+00 -0.14229427326E+02  0.14246754507E+02  0.00000000000E+00 0. -1.
        -15    1    1    2    0    0  0.10387249400E+01 -0.29568684982E+00 -0.22462740891E+02  0.22558786261E+02  0.17770000000E+01 0. -1.
         15    1    1    2    0    0 -0.10635663066E+01 -0.12721306094E+00 -0.87247509264E+01  0.89680747197E+01  0.17770000000E+01 0.  1.
</event>
<event>
 6    1  0.3691007E-002  0.4768554E+02  0.7546771E-02  0.1308197E+00
        -11   -1    0    0    0    0  0.00000000000E+00  0.00000000000E+00  0.45600000000E+02  0.45600000000E+02  0.00000000000E+00 0. -1.
         11   -1    0    0    0    0 -0.00000000000E+00 -0.00000000000E+00 -0.45600000000E+02  0.45600000000E+02  0.00000000000E+00 0. -1.
        -11    1    1    2    0    0  0.44883302201E+00  0.60237424887E+00  0.43507971130E+02  0.43514455732E+02  0.00000000000E+00 0. -1.
         11    1    1    2    0    0  0.86838041953E+00 -0.15790436380E+01 -0.41445876398E+02  0.41485035058E+02  0.00000000000E+00 0. -1.
        -15    1    1    2    0    0 -0.25245935996E+01  0.12749451360E+01 -0.20728642449E+00  0.33466034430E+01  0.17770000000E+01 0. -1.
         15    1    1    2    0    0  0.12073801581E+01 -0.29827574685E+00 -0.18548083073E+01  0.28539057665E+01  0.17770000000E+01 0.  1.
</event>
<event>
 6    1  0.3691007E-002  0.4580380E+02  0.7546771E-02  0.1317108E+00
        -11   -1    0    0    0    0  0.00000000000E+00  0.00000000000E+00  0.45600000000E+02  0.45600000000E+02  0.00000000000E+00 0. -1.
         11   -1    0    0    0    0 -0.00000000000E+00 -0.00000000000E+00 -0.45600000000E+02  0.45600000000E+02  0.00000000000E+00 0.  1.
        -11    1    1    2    0    0 -0.17112686835E+00  0.65400052711E+00  0.45391162555E+02  0.45396196307E+02  0.00000000000E+00 0. -1.
         11    1    1    2    0    0 -0.47381005485E+00  0.26284249781E+00 -0.10978386058E+02  0.10991748841E+02  0.00000000000E+00 0.  1.
        -15    1    1    2    0    0  0.28579901144E+00 -0.15250907707E+01 -0.82829355956E+01  0.86123361531E+01  0.17770000000E+01 0.  1.
         15    1    1    2    0    0  0.35913791177E+00  0.60824774579E+00 -0.26129840901E+02  0.26199718699E+02  0.17770000000E+01 0.  1.
</event>
<event>
 6    1  0.3691007E-002  0.4635684E+02  0.7546771E-02  0.1314438E+00
        -11   -1    0    0    0    0  0.00000000000E+00  0.00000000000E+00  0.45600000000E+02  0.45600000000E+02  0.00000000000E+00 0.  1.
         11   -1    0    0    0    0 -0.00000000000E+00 -0.00000000000E+00 -0.45600000000E+02  0.45600000000E+02  0.00000000000E+00 0.  1.
        -11    1    1    2    0    0 -0.40757932763E+01 -0.17738167832E+01  0.44622312103E+02  0.44843162849E+02  0.00000000000E+00 0.  1.
         11    1    1    2    0    0  0.57108039038E+00  0.13820634975E+01 -0.28536821034E+02  0.28575975697E+02  0.00000000000E+00 0.  1.
        -15    1    1    2    0    0  0.21335047197E+01  0.23383862812E+01 -0.13000557298E+02  0.13497855824E+02  0.17770000000E+01 0. -1.
         15    1    1    2    0    0  0.13712081662E+01 -0.19466329955E+01 -0.30849337719E+01  0.42830056305E+01  0.17770000000E+01 0.  1.
</event>
<event>
 6    1  0.3691007E-002  0.4608015E+02  0.7546771E-02  0.1315768E+00
        -11   -1    0    0    0    0  0.00000000000E+00  0.00000000000E+00  0.45600000000E+02  0.45600000000E+02  0.00000000000E+00 0. -1.
         11   -1    0    0    0    0 -0.00000000000E+00 -0.00000000000E+00 -0.45600000000E+02  0.45600000000E+02  0.00000000000E+00 0.  1.
        -11    1    1    2    0    0  0.44301818180E+00  0.38538015271E+00  0.24415129988E+02  0.24422189813E+02  0.00000000000E+00 0. -1.
         11    1    1    2    0    0 -0.67331981143E+00 -0.18987523352E-01 -0.45114818748E+02  0.45119846972E+02  0.00000000000E+00 0.  1.
        -15    1    1    2    0    0 -0.10686450265E+01  0.77158379837E+00  0.17354690070E+02  0.17495151905E+02  0.17770000000E+01 0.  1.
         15    1    1    2    0    0  0.12989466562E+01 -0.11379764277E+01  0.33449986898E+01  0.41628113098E+01  0.17770000000E+01 0.  1.
</event>
<event>
 6    1  0.3691007E-002  0.4583313E+02  0.7546771E-02  0.1316965E+00
        -11   -1    0    0    0    0  0.00000000000E+00  0.00000000000E+00  0.45600000000E+02  0.45600000000E+02  0.00000000000E+00 0.  1.
         11   -1    0    0    0    0 -0.00000000000E+00 -0.00000000000E+00 -0.45600000000E+02  0.45600000000E+02  0.00000000000E+00 0. -1.
        -11    1    1    2    0    0  0.46227671866E-01 -0.15353283361E+01  0.45340857672E+02  0.45366868357E+02  0.00000000000E+00 0.  1.
         11    1    1    2    0    0 -0.85195865485E+00  0.21332114961E+00 -0.44227209193E+01  0.45090797057E+01  0.00000000000E+00 0. -1.
        -15    1    1    2    0    0  0.24463810280E+01  0.54189384467E+00 -0.17406249673E+02  0.17675228025E+02  0.17770000000E+01 0. -1.
         15    1    1    2    0    0 -0.16406500451E+01  0.78011334183E+00 -0.23511887079E+02  0.23648823912E+02  0.17770000000E+01 0. -1.
</event>
<event>
 6    1  0.3691007E-002  0.4016992E+02  0.7546771E-02  0.1347040E+00
        -11   -1    0    0    0    0  0.00000000000E+00  0.00000000000E+00  0.45600000000E+02  0.45600000000E+02  0.00000000000E+00 0. -1.
         11   -1    0    0    0    0 -0.00000000000E+00 -0.00000000000E+00 -0.45600000000E+02  0.45600000000E+02  0.00000000000E+00 0. -1.
        -11    1    1    2    0    0  0.56682700853E+01 -0.10658116580E+01  0.40937325093E+02  0.41341623408E+02  0.00000000000E+00 0. -1.
         11    1    1    2    0    0 -0.34606887171E+01 -0.47408351633E+01 -0.38824543154E+02  0.39265723418E+02  0.00000000000E+00 0. -1.
        -15    1    1    2    0    0 -0.45434407214E+01  0.53684114937E+01 -0.64671931890E+00  0.72827653012E+01  0.17770000000E+01 0.  1.
         15    1    1    2    0    0  0.23358593532E+01  0.43823532757E+00 -0.14660626204E+01  0.33098878723E+01  0.17770000000E+01 0. -1.
</event>
<event>
 6    1  0.3691007E-002  0.4808486E+02  0.7546771E-02  0.1306367E+00
        -11   -1    0    0    0    0  0.00000000000E+00  0.00000000000E+00  0.45600000000E+02  0.45600000000E+02  0.00000000000E+00 0.  1.
         11   -1    0    0    0    0 -0.00000000000E+00 -0.00000000000E+00 -0.45600000000E+02  0.45600000000E+02  0.00000000000E+00 0. -1.
        -11    1    1    2    0    0  0.82646015786E+00 -0.70254826194E+00  0.43101496049E+02  0.43115143188E+02  0.00000000000E+00 0.  1.
         11    1    1    2    0    0  0.29898892156E-01  0.17204636818E+01 -0.38930473284E+02  0.38968482641E+02  0.00000000000E+00 0. -1.
        -15    1    1    2    0    0 -0.81099240532E+00 -0.31693919774E+01  0.41696783454E+00  0.37462441676E+01  0.17770000000E+01 0. -1.
         15    1    1    2    0    0 -0.45366644695E-01  0.21514765576E+01 -0.45879905994E+01  0.53701300031E+01  0.17770000000E+01 0.  1.
</event>
<event>
 6    1  0.3691007E-002  0.4698380E+02  0.7546771E-02  0.1311464E+00
        -11   -1    0    0    0    0  0.00000000000E+00  0.00000000000E+00  0.45600000000E+02  0.45600000000E+02  0.00000000000E+00 0. -1.
         11   -1    0    0    0    0 -0.00000000000E+00 -0.00000000000E+00 -0.45600000000E+02  0.45600000000E+02  0.00000000000E+00 0.  1.
        -11    1    1    2    0    0  0.69167750997E+00  0.59264844354E+00  0.44206816011E+02  0.44216198749E+02  0.00000000000E+00 0. -1.
         11    1    1    2    0    0 -0.42371896720E+01  0.21185166385E+01 -0.25027972310E+02  0.25472363200E+02  0.00000000000E+00 0.  1.
        -15    1    1    2    0    0 -0.20546976611E+01 -0.12146971135E+01 -0.10576805495E+02  0.10987438966E+02  0.17770000000E+01 0. -1.
         15    1    1    2    0    0  0.56002098231E+01 -0.14964679686E+01 -0.86020382060E+01  0.10523999085E+02  0.17770000000E+01 0.  1.
</event>
<event>
 6    1  0.3691007E-002  0.4613249E+02  0.7546771E-02  0.1315516E+00
        -11   -1    0    0    0    0  0.00000000000E+00  0.00000000000E+00  0.45600000000E+02  0.45600000000E+02  0.00000000000E+00 0.  1.
         11   -1    0    0    0    0 -0.00000000000E+00 -0.00000000000E+00 -0.45600000000E+02  0.45600000000E+02  0.00000000000E+00 0. -1.
        -11    1    1    2    0    0 -0.21418345304E+01 -0.58744348204E-01  0.45016551381E+02  0.45067513847E+02  0.00000000000E+00 0.  1.
         11    1    1    2    0    0  0.70915227256E+00 -0.11940340900E+01 -0.32931242042E+02  0.32960511476E+02  0.00000000000E+00 0. -1.
        -15    1    1    2    0    0  0.16179514678E+01 -0.75128351462E+00 -0.66235609344E+01  0.70860060911E+01  0.17770000000E+01 0. -1.
         15    1    1    2    0    0 -0.18526920998E+00  0.20040619528E+01 -0.54617484052E+01  0.60859685863E+01  0.17770000000E+01 0.  1.
</event>
<event>
 6    1  0.3691007E-002  0.4142467E+02  0.7546771E-02  0.1339901E+00
        -11   -1    0    0    0    0  0.00000000000E+00  0.00000000000E+00  0.45600000000E+02  0.45600000000E+02  0.00000000000E+00 0. -1.
         11   -1    0    0    0    0 -0.00000000000E+00 -0.00000000000E+00 -0.45600000000E+02  0.45600000000E+02  0.00000000000E+00 0. -1.
        -11    1    1    2    0    0 -0.75031855992E+00 -0.73351136572E+00  0.41599197979E+02  0.41612429505E+02  0.00000000000E+00 0. -1.
         11    1    1    2    0    0 -0.15773616618E+01  0.40679890265E+01 -0.41107205599E+02  0.41338105384E+02  0.00000000000E+00 0. -1.
        -15    1    1    2    0    0  0.17922758925E+01  0.15784167810E+01 -0.33213601227E+00  0.29952789085E+01  0.17770000000E+01 0.  1.
         15    1    1    2    0    0  0.53540432923E+00 -0.49128944417E+01 -0.15985636733E+00  0.52541862024E+01  0.17770000000E+01 0.  1.
</event>
<event>
 6    1  0.3929973E-002  0.4611980E+02  0.7546771E-02  0.1315577E+00
        -11   -1    0    0    0    0  0.00000000000E+00  0.00000000000E+00  0.45600000000E+02  0.45600000000E+02  0.00000000000E+00 0.  1.
         11   -1    0    0    0    0 -0.00000000000E+00 -0.00000000000E+00 -0.45600000000E+02  0.45600000000E+02  0.00000000000E+00 0. -1.
        -11    1    1    2    0    0  0.91981484906E+00 -0.33906257288E+00  0.45069535457E+02  0.45080195753E+02  0.00000000000E+00 0.  1.
         11    1    1    2    0    0  0.13886098654E+01  0.13417723766E+01 -0.24999572324E+02  0.25074034515E+02  0.00000000000E+00 0. -1.
        -15    1    1    2    0    0 -0.18720424605E+01 -0.19614321443E+01 -0.17239462440E+02  0.17541623449E+02  0.17770000000E+01 0. -1.
         15    1    1    2    0    0 -0.43638225397E+00  0.95872234057E+00 -0.28305006933E+01  0.35041462830E+01  0.17770000000E+01 0.  1.
</event>
<event>
 6    1  0.3691007E-002  0.4685346E+02  0.7546771E-02  0.1312078E+00
        -11   -1    0    0    0    0  0.00000000000E+00  0.00000000000E+00  0.45600000000E+02  0.45600000000E+02  0.00000000000E+00 0.  1.
         11   -1    0    0    0    0 -0.00000000000E+00 -0.00000000000E+00 -0.45600000000E+02  0.45600000000E+02  0.00000000000E+00 0. -1.
        -11    1    1    2    0    0  0.12570516705E+01 -0.13838241333E+00  0.39350008555E+02  0.39370325143E+02  0.00000000000E+00 0.  1.
         11    1    1    2    0    0 -0.43174582729E+00  0.14087223090E+01 -0.44322060679E+02  0.44346544013E+02  0.00000000000E+00 0. -1.
        -15    1    1    2    0    0 -0.17246569959E+01  0.46879996195E+00  0.99986420052E+00  0.27113967945E+01  0.17770000000E+01 0. -1.
         15    1    1    2    0    0  0.89935115266E+00 -0.17391398576E+01  0.39721879236E+01  0.47717340496E+01  0.17770000000E+01 0. -1.
</event>
<event>
 6    1  0.3691007E-002  0.4751355E+02  0.7546771E-02  0.1308992E+00
        -11   -1    0    0    0    0  0.00000000000E+00  0.00000000000E+00  0.45600000000E+02  0.45600000000E+02  0.00000000000E+00 0.  1.
         11   -1    0    0    0    0 -0.00000000000E+00 -0.00000000000E+00 -0.45600000000E+02  0.45600000000E+02  0.00000000000E+00 0.  1.
        -11    1    1    2    0    0  0.10548927435E+01 -0.16459111948E+01  0.39593748837E+02  0.39641982409E+02  0.00000000000E+00 0.  1.
         11    1    1    2    0    0  0.60116109175E+00 -0.32876954295E+00 -0.43681075203E+02  0.43686448871E+02  0.00000000000E+00 0.  1.
        -15    1    1    2    0    0 -0.32184268789E+00  0.13874061571E+01  0.49243799655E+01  0.54254700814E+01  0.17770000000E+01 0.  1.
         15    1    1    2    0    0 -0.13342111474E+01  0.58727458071E+00 -0.83705359997E+00  0.24460986383E+01  0.17770000000E+01 0.  1.
</event>
<event>
 6    1  0.3691007E-002  0.4712968E+02  0.7546771E-02  0.1310779E+00
        -11   -1    0    0    0    0  0.00000000000E+00  0.00000000000E+00  0.45600000000E+02  0.45600000000E+02  0.00000000000E+00 0. -1.
         11   -1    0    0    0    0 -0.00000000000E+00 -0.00000000000E+00 -0.45600000000E+02  0.45600000000E+02  0.00000000000E+00 0.  1.
        -11    1    1    2    0    0 -0.21945733875E+01 -0.41578808521E+00  0.44013683200E+02  0.44070322678E+02  0.00000000000E+00 0. -1.
         11    1    1    2    0    0 -0.59468865081E+00  0.92066071712E+00 -0.39031247346E+02  0.39046632891E+02  0.00000000000E+00 0.  1.
        -15    1    1    2    0    0  0.15069746883E+01  0.35042645244E+00 -0.52116980287E+01  0.57195538945E+01  0.17770000000E+01 0.  1.
         15    1    1    2    0    0  0.12822873500E+01 -0.85529908435E+00  0.22926217422E+00  0.23634905365E+01  0.17770000000E+01 0. -1.
</event>
<event>
 6    1  0.3691007E-002  0.4638843E+02  0.7546771E-02  0.1314287E+00
        -11   -1    0    0    0    0  0.00000000000E+00  0.00000000000E+00  0.45600000000E+02  0.45600000000E+02  0.00000000000E+00 0. -1.
         11   -1    0    0    0    0 -0.00000000000E+00 -0.00000000000E+00 -0.45600000000E+02  0.45600000000E+02  0.00000000000E+00 0. -1.
        -11    1    1    2    0    0  0.70320826785E+00  0.63334505407E-01  0.44806005914E+02  0.44811568586E+02  0.00000000000E+00 0. -1.
         11    1    1    2    0    0 -0.59984413243E+00 -0.88017550658E+00 -0.36541654196E+02  0.36557174580E+02  0.00000000000E+00 0. -1.
        -15    1    1    2    0    0 -0.15941203564E+01 -0.11639640596E+00 -0.21090929017E+01  0.31875962263E+01  0.17770000000E+01 0. -1.
         15    1    1    2    0    0  0.14907562209E+01  0.93323740713E+00 -0.61552588165E+01  0.66436606074E+01  0.17770000000E+01 0. -1.
</event>
<event>
 6    1  0.3691007E-002  0.4603265E+02  0.7546771E-02  0.1315998E+00
        -11   -1    0    0    0    0  0.00000000000E+00  0.00000000000E+00  0.45600000000E+02  0.45600000000E+02  0.00000000000E+00 0.  1.
         11   -1    0    0    0    0 -0.00000000000E+00 -0.00000000000E+00 -0.45600000000E+02  0.45600000000E+02  0.00000000000E+00 0.  1.
        -11    1    1    2    0    0 -0.45992307936E+00 -0.42202690288E+00  0.86748836861E+01  0.86973123959E+01  0.00000000000E+00 0.  1.
         11    1    1    2    0    0 -0.16574283975E+01 -0.17802797741E+01 -0.45101808304E+02  0.45167350788E+02  0.00000000000E+00 0.  1.
        -15    1    1    2    0    0 -0.20848557114E+00  0.77086414835E+00  0.21400738638E+01  0.28940184711E+01  0.17770000000E+01 0. -1.
         15    1    1    2    0    0  0.23258370480E+01  0.14314425287E+01  0.34286850754E+02  0.34441318345E+02  0.17770000000E+01 0.  1.
</event>
<event>
 6    1  0.3691007E-002  0.4938059E+02  0.7546771E-02  0.1300566E+00
        -11   -1    0    0    0    0  0.00000000000E+00  0.00000000000E+00  0.45600000000E+02  0.45600000000E+02  0.00000000000E+00 0. -1.
         11   -1    0    0    0    0 -0.00000000000E+00 -0.00000000000E+00 -0.45600000000E+02  0.45600000000E+02  0.00000000000E+00 0. -1.
        -11    1    1    2    0    0 -0.43378540556E+00  0.82157843346E+00  0.41809084996E+02  0.41819406370E+02  0.00000000000E+00 0. -1.
         11    1    1    2    0    0  0.13602777972E+01  0.32742376562E+01 -0.34648865940E+02  0.34829799007E+02  0.00000000000E+00 0. -1.
        -15    1    1    2    0    0  0.37834147301E+01 -0.40968509490E+01 -0.74905084086E+01  0.95059907394E+01  0.17770000000E+01 0. -1.
         15    1    1    2    0    0 -0.47099071217E+01  0.10348593512E-02  0.33028935270E+00  0.50448038835E+01  0.17770000000E+01 0.  1.
</event>
<event>
 6    1  0.4603970E-002  0.5027593E+02  0.7546771E-02  0.1296676E+00
        -11   -1    0    0    0    0  0.00000000000E+00  0.00000000000E+00  0.45600000000E+02  0.45600000000E+02  0.00000000000E+00 0. -1.
         11   -1    0    0    0    0 -0.00000000000E+00 -0.00000000000E+00 -0.45600000000E+02  0.45600000000E+02  0.00000000000E+00 0.  1.
        -11    1    1    2    0    0 -0.94523722093E+00  0.42706405463E+00  0.24198455576E+02  0.24220675246E+02  0.00000000000E+00 0. -1.
         11    1    1    2    0    0  0.36221818180E+01 -0.22053806686E+01 -0.40703759045E+02  0.40924074888E+02  0.00000000000E+00 0.  1.
        -15    1    1    2    0    0 -0.23663778200E+00 -0.14532025719E+01  0.20176347649E+02  0.20307893259E+02  0.17770000000E+01 0. -1.
         15    1    1    2    0    0 -0.24403068150E+01  0.32315191859E+01 -0.36710441797E+01  0.57473566072E+01  0.17770000000E+01 0.  1.
</event>
<event>
 6    1  0.3691007E-002  0.4597994E+02  0.7546771E-02  0.1316253E+00
        -11   -1    0    0    0    0  0.00000000000E+00  0.00000000000E+00  0.45600000000E+02  0.45600000000E+02  0.00000000000E+00 0. -1.
         11   -1    0    0    0    0 -0.00000000000E+00 -0.00000000000E+00 -0.45600000000E+02  0.45600000000E+02  0.00000000000E+00 0.  1.
        -11    1    1    2    0    0  0.66587795162E+00 -0.77540534560E+00  0.45208509710E+02  0.45220061888E+02  0.00000000000E+00 0. -1.
         11    1    1    2    0    0  0.73646654048E+00 -0.13894751923E+00 -0.29051403382E+02  0.29061068938E+02  0.00000000000E+00 0.  1.
        -15    1    1    2    0    0 -0.16471672956E+01  0.14826147631E+01 -0.12345839935E+02  0.12668417397E+02  0.17770000000E+01 0.  1.
         15    1    1    2    0    0  0.24482280348E+00 -0.56826189827E+00 -0.38112663929E+01  0.42504517769E+01  0.17770000000E+01 0.  1.
</event>
<event>
 6    1  0.3691007E-002  0.5435378E+02  0.7546771E-02  0.1280064E+00
        -11   -1    0    0    0    0  0.00000000000E+00  0.00000000000E+00  0.45600000000E+02  0.45600000000E+02  0.00000000000E+00 0. -1.
         11   -1    0    0    0    0 -0.00000000000E+00 -0.00000000000E+00 -0.45600000000E+02  0.45600000000E+02  0.00000000000E+00 0. -1.
        -11    1    1    2    0    0  0.12114926799E+01  0.49914868198E+00  0.28941745518E+02  0.28971391018E+02  0.00000000000E+00 0. -1.
         11    1    1    2    0    0  0.35256545084E+01 -0.30251257666E+00 -0.36675908514E+02  0.36846221229E+02  0.00000000000E+00 0. -1.
        -15    1    1    2    0    0 -0.21801532817E+01  0.76426738903E-01  0.16156007070E+02  0.16399182992E+02  0.17770000000E+01 0. -1.
         15    1    1    2    0    0 -0.25569939066E+01 -0.27306284422E+00 -0.84218440741E+01  0.89832047602E+01  0.17770000000E+01 0. -1.
</event>
<event>
 6    1  0.7553394E-002  0.4543832E+02  0.7546771E-02  0.1318896E+00
        -11   -1    0    0    0    0  0.00000000000E+00  0.00000000000E+00  0.45600000000E+02  0.45600000000E+02  0.00000000000E+00 0. -1.
         11   -1    0    0    0    0 -0.00000000000E+00 -0.00000000000E+00 -0.45600000000E+02  0.45600000000E+02  0.00000000000E+00 0.  1.
        -11    1    1    2    0    0 -0.47227248072E+00 -0.70705730036E+00  0.45237646805E+02  0.45245636914E+02  0.00000000000E+00 0. -1.
         11    1    1    2    0    0  0.47918196341E+00 -0.31150179172E+00 -0.16189582609E+00  0.59401934212E+00  0.00000000000E+00 0.  1.
        -15    1    1    2    0    0 -0.78490086095E+00  0.20878083647E+01 -0.24233534345E+02  0.24400756730E+02  0.17770000000E+01 0. -1.
         15    1    1    2    0    0  0.77799137825E+00 -0.10692492726E+01 -0.20842216634E+02  0.20959587014E+02  0.17770000000E+01 0.  1.
</event>
<event>
 6    1  0.3691007E-002  0.4629413E+02  0.7546771E-02  0.1314739E+00
        -11   -1    0    0    0    0  0.00000000000E+00  0.00000000000E+00  0.45600000000E+02  0.45600000000E+02  0.00000000000E+00 0. -1.
         11   -1    0    0    0    0 -0.00000000000E+00 -0.00000000000E+00 -0.45600000000E+02  0.45600000000E+02  0.00000000000E+00 0. -1.
        -11    1    1    2    0    0 -0.20229576246E+01 -0.14748343427E+01  0.38718868916E+02  0.38799720411E+02  0.00000000000E+00 0. -1.
         11    1    1    2    0    0  0.14846934428E+01  0.24494922803E+01 -0.44814425700E+02  0.44905869080E+02  0.00000000000E+00 0. -1.
        -15    1    1    2    0    0 -0.47339723397E+00 -0.13306690709E+01  0.28768979046E+01  0.36645675967E+01  0.17770000000E+01 0.  1.
         15    1    1    2    0    0  0.10116614157E+01  0.35601113327E+00  0.32186588796E+01  0.38298429120E+01  0.17770000000E+01 0. -1.
</event>
<event>
 6    1  0.3691007E-002  0.4989490E+02  0.7546771E-02  0.1298320E+00
        -11   -1    0    0    0    0  0.00000000000E+00  0.00000000000E+00  0.45600000000E+02  0.45600000000E+02  0.00000000000E+00 0. -1.
         11   -1    0    0    0    0 -0.00000000000E+00 -0.00000000000E+00 -0.45600000000E+02  0.45600000000E+02  0.00000000000E+00 0. -1.
        -11    1    1    2    0    0 -0.27047305186E+00  0.18701886242E+01  0.33283970275E+02  0.33337567974E+02  0.00000000000E+00 0. -1.
         11    1    1    2    0    0  0.99599412543E+00 -0.36084946047E+00 -0.41291511941E+02  0.41305098656E+02  0.00000000000E+00 0. -1.
        -15    1    1    2    0    0 -0.56686464514E+01 -0.87725345695E+00  0.93377031314E+01  0.11101961763E+02  0.17770000000E+01 0. -1.
         15    1    1    2    0    0  0.49431253778E+01 -0.63208570674E+00 -0.13301614662E+01  0.54553716067E+01  0.17770000000E+01 0.  1.
</event>
<event>
 6    1  0.3691007E-002  0.4952483E+02  0.7546771E-02  0.1299933E+00
        -11   -1    0    0    0    0  0.00000000000E+00  0.00000000000E+00  0.45600000000E+02  0.45600000000E+02  0.00000000000E+00 0. -1.
         11   -1    0    0    0    0 -0.00000000000E+00 -0.00000000000E+00 -0.45600000000E+02  0.45600000000E+02  0.00000000000E+00 0.  1.
        -11    1    1    2    0    0  0.76439286374E+00 -0.13862204801E+00  0.41667931945E+02  0.41675173246E+02  0.00000000000E+00 0. -1.
         11    1    1    2    0    0 -0.72985007477E+00 -0.95785494729E-01 -0.34557743084E+02  0.34565582058E+02  0.00000000000E+00 0.  1.
        -15    1    1    2    0    0 -0.12940336333E+01  0.15820605167E+01 -0.10424503318E+02  0.10770582016E+02  0.17770000000E+01 0.  1.
         15    1    1    2    0    0  0.12594908443E+01 -0.13476529739E+01  0.33143144568E+01  0.41886626796E+01  0.17770000000E+01 0.  1.
</event>
<event>
 6    1  0.3691007E-002  0.3724109E+02  0.7546771E-02  0.1364949E+00
        -11   -1    0    0    0    0  0.00000000000E+00  0.00000000000E+00  0.45600000000E+02  0.45600000000E+02  0.00000000000E+00 0.  1.
         11   -1    0    0    0    0 -0.00000000000E+00 -0.00000000000E+00 -0.45600000000E+02  0.45600000000E+02  0.00000000000E+00 0.  1.
        -11    1    1    2    0    0 -0.14385768103E+01  0.76476474681E+00  0.37905961359E+02  0.37940957749E+02  0.00000000000E+00 0.  1.
         11    1    1    2    0    0 -0.15573791916E+01 -0.11007633157E+01 -0.36564573424E+02  0.36614275078E+02  0.00000000000E+00 0.  1.
        -15    1    1    2    0    0 -0.55268103606E+01 -0.37974557405E+01 -0.20092053508E+00  0.69400577033E+01  0.17770000000E+01 0. -1.
         15    1    1    2    0    0  0.85227663625E+01  0.41334543094E+01 -0.11404674002E+01  0.97047094696E+01  0.17770000000E+01 0.  1.
</event>
<event>
 6    1  0.3691007E-002  0.4741226E+02  0.7546771E-02  0.1309462E+00
        -11   -1    0    0    0    0  0.00000000000E+00  0.00000000000E+00  0.45600000000E+02  0.45600000000E+02  0.00000000000E+00 0.  1.
         11   -1    0    0    0    0 -0.00000000000E+00 -0.00000000000E+00 -0.45600000000E+02  0.45600000000E+02  0.00000000000E+00 0. -1.
        -11    1    1    2    0    0 -0.15869675997E+01 -0.69504997387E+01  0.43203450746E+02  0.43787738800E+02  0.00000000000E+00 0.  1.
         11    1    1    2    0    0  0.16774072127E+01 -0.78393614037E+00 -0.12475480106E+02  0.12612131251E+02  0.00000000000E+00 0. -1.
        -15    1    1    2    0    0 -0.67744452958E+01  0.32011217620E+01 -0.18497513747E+02  0.20036367770E+02  0.17770000000E+01 0.  1.
         15    1    1    2    0    0  0.66840056829E+01  0.45333141171E+01 -0.12230456894E+02  0.14763762180E+02  0.17770000000E+01 0. -1.
</event>
<event>
 6    1  0.3691007E-002  0.4708784E+02  0.7546771E-02  0.1310975E+00
        -11   -1    0    0    0    0  0.00000000000E+00  0.00000000000E+00  0.45600000000E+02  0.45600000000E+02  0.00000000000E+00 0. -1.
         11   -1    0    0    0    0 -0.00000000000E+00 -0.00000000000E+00 -0.45600000000E+02  0.45600000000E+02  0.00000000000E+00 0.  1.
        -11    1    1    2    0    0 -0.52721395003E-01 -0.13278292523E+01  0.44092138563E+02  0.44112159244E+02  0.00000000000E+00 0. -1.
         11    1    1    2    0    0 -0.15233450391E+01  0.25920275153E+01 -0.37771995402E+02  0.37891461088E+02  0.00000000000E+00 0.  1.
        -15    1    1    2    0    0  0.19016691182E+01 -0.30167647382E+01 -0.48675403658E+01  0.62903015137E+01  0.17770000000E+01 0. -1.
         15    1    1    2    0    0 -0.32560268404E+00  0.17525664753E+01 -0.14526027954E+01  0.29060781543E+01  0.17770000000E+01 0. -1.
</event>
<event>
 6    1  0.3691007E-002  0.4641151E+02  0.7546771E-02  0.1314177E+00
        -11   -1    0    0    0    0  0.00000000000E+00  0.00000000000E+00  0.45600000000E+02  0.45600000000E+02  0.00000000000E+00 0.  1.
         11   -1    0    0    0    0 -0.00000000000E+00 -0.00000000000E+00 -0.45600000000E+02  0.45600000000E+02  0.00000000000E+00 0.  1.
        -11    1    1    2    0    0 -0.39761988624E+00 -0.90120263368E+00  0.44777659954E+02  0.44788492928E+02  0.00000000000E+00 0.  1.
         11    1    1    2    0    0  0.27819132547E+00  0.67390448686E+00 -0.37886753892E+02  0.37893768064E+02  0.00000000000E+00 0.  1.
        -15    1    1    2    0    0 -0.13958323813E+01 -0.58219847702E+00 -0.21582262395E+01  0.31785173595E+01  0.17770000000E+01 0. -1.
         15    1    1    2    0    0  0.15152609421E+01  0.80949662384E+00 -0.47326798228E+01  0.53392216485E+01  0.17770000000E+01 0.  1.
</event>
<event>
 6    1  0.3691007E-002  0.4607907E+02  0.7546771E-02  0.1315774E+00
        -11   -1    0    0    0    0  0.00000000000E+00  0.00000000000E+00  0.45600000000E+02  0.45600000000E+02  0.00000000000E+00 0. -1.
         11   -1    0    0    0    0 -0.00000000000E+00 -0.00000000000E+00 -0.45600000000E+02  0.45600000000E+02  0.00000000000E+00 0.  1.
        -11    1    1    2    0    0  0.15653069292E+01  0.18357389262E+00  0.12702433837E+02  0.12799832442E+02  0.00000000000E+00 0. -1.
         11    1    1    2    0    0 -0.90059472866E+00  0.23116290889E+01 -0.45052677005E+02  0.45120930899E+02  0.00000000000E+00 0.  1.
        -15    1    1    2    0    0 -0.46635929844E+00 -0.33729612860E+01  0.29784234945E+02  0.30030863110E+02  0.17770000000E+01 0. -1.
         15    1    1    2    0    0 -0.19835290211E+00  0.87775830445E+00  0.25660082226E+01  0.32483735489E+01  0.17770000000E+01 0. -1.
</event>
<event>
 6    1  0.3691007E-002  0.4712118E+02  0.7546771E-02  0.1310819E+00
        -11   -1    0    0    0    0  0.00000000000E+00  0.00000000000E+00  0.45600000000E+02  0.45600000000E+02  0.00000000000E+00 0.  1.
         11   -1    0    0    0    0 -0.00000000000E+00 -0.00000000000E+00 -0.45600000000E+02  0.45600000000E+02  0.00000000000E+00 0. -1.
        -11    1    1    2    0    0  0.23241737856E+01 -0.16664416635E+01  0.41916079488E+02  0.42013527955E+02  0.00000000000E+00 0.  1.
         11    1    1    2    0    0  0.18910865897E+00  0.26624034542E+01 -0.43997929996E+02  0.44078815753E+02  0.00000000000E+00 0. -1.
        -15    1    1    2    0    0 -0.19471522304E+01 -0.57654145831E+00  0.15968171493E+01  0.31354993015E+01  0.17770000000E+01 0. -1.
         15    1    1    2    0    0 -0.56613021413E+00 -0.41942033237E+00  0.48503335868E+00  0.19721569901E+01  0.17770000000E+01 0.  1.
</event>
<event>
 6    1  0.3691007E-002  0.4832553E+02  0.7546771E-02  0.1305274E+00
        -11   -1    0    0    0    0  0.00000000000E+00  0.00000000000E+00  0.45600000000E+02  0.45600000000E+02  0.00000000000E+00 0.  1.
         11   -1    0    0    0    0 -0.00000000000E+00 -0.00000000000E+00 -0.45600000000E+02  0.45600000000E+02  0.00000000000E+00 0. -1.
        -11    1    1    2    0    0 -0.36853181574E+00 -0.21070835838E+01  0.42821077392E+02  0.42874471261E+02  0.00000000000E+00 0.  1.
         11    1    1    2    0    0 -0.25509539234E+01  0.12085127970E+01 -0.37982551658E+02  0.38087295776E+02  0.00000000000E+00 0. -1.
        -15    1    1    2    0    0  0.43712603826E+01 -0.10239566068E+01 -0.34752953926E+00  0.48409617067E+01  0.17770000000E+01 0.  1.
         15    1    1    2    0    0 -0.14517746435E+01  0.19225273936E+01 -0.44909961946E+01  0.53972712563E+01  0.17770000000E+01 0. -1.
</event>
<event>
 6    1  0.3691007E-002  0.4791686E+02  0.7546771E-02  0.1307134E+00
        -11   -1    0    0    0    0  0.00000000000E+00  0.00000000000E+00  0.45600000000E+02  0.45600000000E+02  0.00000000000E+00 0.  1.
         11   -1    0    0    0    0 -0.00000000000E+00 -0.00000000000E+00 -0.45600000000E+02  0.45600000000E+02  0.00000000000E+00 0. -1.
        -11    1    1    2    0    0  0.13812970949E+01 -0.39879082155E+01  0.34360190470E+02  0.34618406704E+02  0.00000000000E+00 0.  1.
         11    1    1    2    0    0 -0.44064386693E+00  0.14448180267E+01 -0.43256775129E+02  0.43283140606E+02  0.00000000000E+00 0. -1.
        -15    1    1    2    0    0  0.20848296970E+01 -0.24562250265E+01  0.24641476619E+01  0.44282399377E+01  0.17770000000E+01 0. -1.
         15    1    1    2    0    0 -0.30254829250E+01  0.49993152152E+01  0.64324369969E+01  0.88702127522E+01  0.17770000000E+01 0.  1.
</event>
<event>
 6    1  0.3691007E-002  0.4801436E+02  0.7546771E-02  0.1306689E+00
        -11   -1    0    0    0    0  0.00000000000E+00  0.00000000000E+00  0.45600000000E+02  0.45600000000E+02  0.00000000000E+00 0. -1.
         11   -1    0    0    0    0 -0.00000000000E+00 -0.00000000000E+00 -0.45600000000E+02  0.45600000000E+02  0.00000000000E+00 0. -1.
        -11    1    1    2    0    0  0.16493152791E+01  0.71199329617E+00  0.43148264743E+02  0.43185644903E+02  0.00000000000E+00 0. -1.
         11    1    1    2    0    0 -0.20748165850E+01 -0.15578456242E+00 -0.42099511123E+02  0.42150895239E+02  0.00000000000E+00 0. -1.
        -15    1    1    2    0    0 -0.13167972560E+01  0.66853108221E+00  0.89357649973E+00  0.24773164477E+01  0.17770000000E+01 0.  1.
         15    1    1    2    0    0  0.17422985619E+01 -0.12247398160E+01 -0.19423301202E+01  0.33861434097E+01  0.17770000000E+01 0.  1.
</event>
<event>
 6    1  0.3691007E-002  0.4705463E+02  0.7546771E-02  0.1311131E+00
        -11   -1    0    0    0    0  0.00000000000E+00  0.00000000000E+00  0.45600000000E+02  0.45600000000E+02  0.00000000000E+00 0. -1.
         11   -1    0    0    0    0 -0.00000000000E+00 -0.00000000000E+00 -0.45600000000E+02  0.45600000000E+02  0.00000000000E+00 0.  1.
        -11    1    1    2    0    0 -0.41715407483E+00  0.74035824894E+00  0.42743725276E+02  0.42752171855E+02  0.00000000000E+00 0. -1.
         11    1    1    2    0    0  0.12396822586E+01  0.13706005699E+00 -0.44127747748E+02  0.44145370299E+02  0.00000000000E+00 0.  1.
        -15    1    1    2    0    0 -0.11172866917E+01 -0.45610413834E+00  0.11537513132E+01  0.24382845669E+01  0.17770000000E+01 0.  1.
         15    1    1    2    0    0  0.29475850795E+00 -0.42131416759E+00  0.23027115833E+00  0.18641732785E+01  0.17770000000E+01 0.  1.
</event>
<event>
 6    1  0.3691007E-002  0.5116701E+02  0.7546771E-02  0.1292895E+00
        -11   -1    0    0    0    0  0.00000000000E+00  0.00000000000E+00  0.45600000000E+02  0.45600000000E+02  0.00000000000E+00 0. -1.
         11   -1    0    0    0    0 -0.00000000000E+00 -0.00000000000E+00 -0.45600000000E+02  0.45600000000E+02  0.00000000000E+00 0. -1.
        -11    1    1    2    0    0  0.12942825444E+00  0.12172978680E+01  0.40014270523E+02  0.40032991535E+02  0.00000000000E+00 0. -1.
         11    1    1    2    0    0  0.43559120363E+00 -0.51508548910E+00 -0.38218021414E+02  0.38223974330E+02  0.00000000000E+00 0. -1.
        -15    1    1    2    0    0  0.37729138375E+01  0.30035137474E+01  0.23688624703E+01  0.56590822630E+01  0.17770000000E+01 0.  1.
         15    1    1    2    0    0 -0.43379332956E+01 -0.37057261263E+01 -0.41651115795E+01  0.72839518718E+01  0.17770000000E+01 0. -1.
</event>
<event>
 6    1  0.3691007E-002  0.4661342E+02  0.7546771E-02  0.1313215E+00
        -11   -1    0    0    0    0  0.00000000000E+00  0.00000000000E+00  0.45600000000E+02  0.45600000000E+02  0.00000000000E+00 0.  1.
         11   -1    0    0    0    0 -0.00000000000E+00 -0.00000000000E+00 -0.45600000000E+02  0.45600000000E+02  0.00000000000E+00 0. -1.
        -11    1    1    2    0    0  0.81191409879E+00 -0.68548234392E+00  0.44573916432E+02  0.44586580006E+02  0.00000000000E+00 0.  1.
         11    1    1    2    0    0  0.17141348600E+01  0.72851034601E+00 -0.35869541736E+02  0.35917864775E+02  0.00000000000E+00 0. -1.
        -15    1    1    2    0    0 -0.28545014295E+01  0.92747313088E+00 -0.76086001251E+01  0.83700005784E+01  0.17770000000E+01 0. -1.
         15    1    1    2    0    0  0.32845247070E+00 -0.97050113297E+00 -0.10957745715E+01  0.23255546406E+01  0.17770000000E+01 0. -1.
</event>
<event>
 6    1  0.3691007E-002  0.4625942E+02  0.7546771E-02  0.1314906E+00
        -11   -1    0    0    0    0  0.00000000000E+00  0.00000000000E+00  0.45600000000E+02  0.45600000000E+02  0.00000000000E+00 0.  1.
         11   -1    0    0    0    0 -0.00000000000E+00 -0.00000000000E+00 -0.45600000000E+02  0.45600000000E+02  0.00000000000E+00 0.  1.
        -11    1    1    2    0    0  0.33458592413E+01  0.54936763466E+00  0.44812485172E+02  0.44940576389E+02  0.00000000000E+00 0.  1.
         11    1    1    2    0    0  0.73034867654E+00 -0.60849476908E+00 -0.21452288653E+02  0.21473340763E+02  0.00000000000E+00 0.  1.
        -15    1    1    2    0    0 -0.34478351304E+01 -0.21098170646E+01 -0.19382301797E+02  0.19878889483E+02  0.17770000000E+01 0. -1.
         15    1    1    2    0    0 -0.62837278741E+00  0.21689441991E+01 -0.39778947223E+01  0.49071933649E+01  0.17770000000E+01 0.  1.
</event>
<event>
 6    1  0.3691007E-002  0.4712399E+02  0.7546771E-02  0.1310806E+00
        -11   -1    0    0    0    0  0.00000000000E+00  0.00000000000E+00  0.45600000000E+02  0.45600000000E+02  0.00000000000E+00 0.  1.
         11   -1    0    0    0    0 -0.00000000000E+00 -0.00000000000E+00 -0.45600000000E+02  0.45600000000E+02  0.00000000000E+00 0.  1.
        -11    1    1    2    0    0 -0.94589197557E+00  0.90414138123E+00  0.44056583251E+02  0.44076010607E+02  0.00000000000E+00 0.  1.
         11    1    1    2    0    0 -0.25555523784E+01 -0.99217276423E+00 -0.29566647612E+02  0.29693465708E+02  0.00000000000E+00 0.  1.
        -15    1    1    2    0    0  0.31184364748E+01  0.60831427342E+00 -0.95420205266E+00  0.37633658950E+01  0.17770000000E+01 0. -1.
         15    1    1    2    0    0  0.38300787914E+00 -0.52028289042E+00 -0.13535733587E+02  0.13667157790E+02  0.17770000000E+01 0.  1.
</event>
<event>
 6    1  0.3691007E-002  0.4627674E+02  0.7546771E-02  0.1314822E+00
        -11   -1    0    0    0    0  0.00000000000E+00  0.00000000000E+00  0.45600000000E+02  0.45600000000E+02  0.00000000000E+00 0. -1.
         11   -1    0    0    0    0 -0.00000000000E+00 -0.00000000000E+00 -0.45600000000E+02  0.45600000000E+02  0.00000000000E+00 0. -1.
        -11    1    1    2    0    0 -0.19100616626E+01 -0.13580693220E+01  0.44862088472E+02  0.44923264239E+02  0.00000000000E+00 0. -1.
         11    1    1    2    0    0 -0.25324124253E+01  0.12676969453E+01 -0.22891147165E+02  0.23065662504E+02  0.00000000000E+00 0. -1.
        -15    1    1    2    0    0  0.49119046808E+01 -0.95473544478E+00 -0.16975428780E+02  0.17786546563E+02  0.17770000000E+01 0. -1.
         15    1    1    2    0    0 -0.46943059289E+00  0.10451078215E+01 -0.49955125275E+01  0.54245266938E+01  0.17770000000E+01 0.  1.
</event>
<event>
 6    1  0.3691007E-002  0.4729263E+02  0.7546771E-02  0.1310018E+00
        -11   -1    0    0    0    0  0.00000000000E+00  0.00000000000E+00  0.45600000000E+02  0.45600000000E+02  0.00000000000E+00 0. -1.
         11   -1    0    0    0    0 -0.00000000000E+00 -0.00000000000E+00 -0.45600000000E+02  0.45600000000E+02  0.00000000000E+00 0. -1.
        -11    1    1    2    0    0 -0.21925884113E+01 -0.20458674590E+01  0.35061958514E+02  0.35189969486E+02  0.00000000000E+00 0. -1.
         11    1    1    2    0    0  0.17331683033E+01  0.44512614159E+01 -0.43646762305E+02  0.43907373643E+02  0.00000000000E+00 0. -1.
        -15    1    1    2    0    0  0.37731104541E+01 -0.85024395856E+00  0.30647083258E+01  0.52449445574E+01  0.17770000000E+01 0. -1.
         15    1    1    2    0    0 -0.33136903462E+01 -0.15551499983E+01  0.55200954650E+01  0.68577123132E+01  0.17770000000E+01 0.  1.
</event>
<event>
 6    1  0.3691007E-002  0.4654785E+02  0.7546771E-02  0.1313527E+00
        -11   -1    0    0    0    0  0.00000000000E+00  0.00000000000E+00  0.45600000000E+02  0.45600000000E+02  0.00000000000E+00 0.  1.
         11   -1    0    0    0    0 -0.00000000000E+00 -0.00000000000E+00 -0.45600000000E+02  0.45600000000E+02  0.00000000000E+00 0. -1.
        -11    1    1    2    0    0 -0.77053837625E+00 -0.42702629497E+00  0.33542702532E+02  0.33554269087E+02  0.00000000000E+00 0.  1.
         11    1    1    2    0    0 -0.36417443954E+00 -0.21006710741E+01 -0.44601226579E+02  0.44652153972E+02  0.00000000000E+00 0. -1.
        -15    1    1    2    0    0 -0.12658455469E+01 -0.14107136422E+00  0.15620967789E+01  0.26870320848E+01  0.17770000000E+01 0.  1.
         15    1    1    2    0    0  0.24005583627E+01  0.26687687333E+01  0.94964272685E+01  0.10306544856E+02  0.17770000000E+01 0.  1.
</event>
<event>
 6    1  0.3691007E-002  0.4653485E+02  0.7546771E-02  0.1313588E+00
        -11   -1    0    0    0    0  0.00000000000E+00  0.00000000000E+00  0.45600000000E+02  0.45600000000E+02  0.00000000000E+00 0.  1.
         11   -1    0    0    0    0 -0.00000000000E+00 -0.00000000000E+00 -0.45600000000E+02  0.45600000000E+02  0.00000000000E+00 0.  1.
        -11    1    1    2    0    0 -0.22883629391E+00  0.11855683867E+01  0.29758789949E+02  0.29783275805E+02  0.00000000000E+00 0.  1.
         11    1    1    2    0    0 -0.16367726846E+01 -0.57265406605E+00 -0.44631476888E+02  0.44665150696E+02  0.00000000000E+00 0.  1.
        -15    1    1    2    0    0 -0.82985147414E+00 -0.23678843334E-02  0.52194243666E+00  0.20294856450E+01  0.17770000000E+01 0.  1.
         15    1    1    2    0    0  0.26954604527E+01 -0.61054643630E+00  0.14350744502E+02  0.14722087854E+02  0.17770000000E+01 0.  1.
</event>
<event>
 6    1  0.3691007E-002  0.4697431E+02  0.7546771E-02  0.1311508E+00
        -11   -1    0    0    0    0  0.00000000000E+00  0.00000000000E+00  0.45600000000E+02  0.45600000000E+02  0.00000000000E+00 0.  1.
         11   -1    0    0    0    0 -0.00000000000E+00 -0.00000000000E+00 -0.45600000000E+02  0.45600000000E+02  0.00000000000E+00 0.  1.
        -11    1    1    2    0    0  0.28748437278E+00 -0.15086338903E+01  0.35925189120E+02  0.35958001012E+02  0.00000000000E+00 0.  1.
         11    1    1    2    0    0 -0.39341406998E+01  0.35391154621E+01 -0.43907962299E+02  0.44225693375E+02  0.00000000000E+00 0.  1.
        -15    1    1    2    0    0  0.35221757687E+01  0.54624094886E+00  0.25016788546E+01  0.47032145827E+01  0.17770000000E+01 0. -1.
         15    1    1    2    0    0  0.12448055830E+00 -0.25767225206E+01  0.54810943246E+01  0.63130910300E+01  0.17770000000E+01 0.  1.
</event>
<event>
 6    1  0.3931144E-002  0.3153413E+02  0.7546771E-02  0.1406069E+00
        -11   -1    0    0    0    0  0.00000000000E+00  0.00000000000E+00  0.45600000000E+02  0.45600000000E+02  0.00000000000E+00 0. -1.
         11   -1    0    0    0    0 -0.00000000000E+00 -0.00000000000E+00 -0.45600000000E+02  0.45600000000E+02  0.00000000000E+00 0.  1.
        -11    1    1    2    0    0 -0.70429862463E+00 -0.55938395792E-02 -0.62361109176E-01  0.70707619932E+00  0.00000000000E+00 0.  1.
         11    1    1    2    0    0  0.52945761013E+00 -0.12492927973E+02 -0.19608472657E+02  0.23256091130E+02  0.00000000000E+00 0. -1.
        -15    1    1    2    0    0 -0.22398491480E+02 -0.10755415012E+02 -0.62695938198E+01  0.25687290794E+02  0.17770000000E+01 0.  1.
         15    1    1    2    0    0  0.22573332495E+02  0.23253936825E+02  0.25940427586E+02  0.41549541876E+02  0.17770000000E+01 0. -1.
</event>
<event>
 6    1  0.3691007E-002  0.4211844E+02  0.7546771E-02  0.1336078E+00
        -11   -1    0    0    0    0  0.00000000000E+00  0.00000000000E+00  0.45600000000E+02  0.45600000000E+02  0.00000000000E+00 0.  1.
         11   -1    0    0    0    0 -0.00000000000E+00 -0.00000000000E+00 -0.45600000000E+02  0.45600000000E+02  0.00000000000E+00 0. -1.
        -11    1    1    2    0    0  0.21963151818E+01 -0.13898665712E+01  0.42586867360E+02  0.42666108341E+02  0.00000000000E+00 0.  1.
         11    1    1    2    0    0 -0.76565197979E+00  0.12837809998E+00 -0.41591000338E+02  0.41598245311E+02  0.00000000000E+00 0. -1.
        -15    1    1    2    0    0 -0.16893652568E+01  0.17930122595E+01 -0.29462972951E+01  0.42316952496E+01  0.17770000000E+01 0. -1.
         15    1    1    2    0    0  0.25870205480E+00 -0.53152378829E+00  0.19504302731E+01  0.27039510981E+01  0.17770000000E+01 0.  1.
</event>
<event>
 6    1  0.3691007E-002  0.4676080E+02  0.7546771E-02  0.1312516E+00
        -11   -1    0    0    0    0  0.00000000000E+00  0.00000000000E+00  0.45600000000E+02  0.45600000000E+02  0.00000000000E+00 0. -1.
         11   -1    0    0    0    0 -0.00000000000E+00 -0.00000000000E+00 -0.45600000000E+02  0.45600000000E+02  0.00000000000E+00 0. -1.
        -11    1    1    2    0    0  0.31467320976E+01 -0.49176381918E+01  0.44054024679E+02  0.44439196422E+02  0.00000000000E+00 0. -1.
         11    1    1    2    0    0  0.19638695364E+01 -0.16309053096E+01 -0.18178450171E+02  0.18356815800E+02  0.00000000000E+00 0. -1.
        -15    1    1    2    0    0 -0.22911495136E+00  0.26276250713E+01 -0.22434636225E+01  0.38920130012E+01  0.17770000000E+01 0.  1.
         15    1    1    2    0    0 -0.48814866826E+01  0.39209184302E+01 -0.23632110885E+02  0.24511974777E+02  0.17770000000E+01 0. -1.
</event>
<event>
 6    1  0.3691007E-002  0.4853091E+02  0.7546771E-02  0.1304347E+00
        -11   -1    0    0    0    0  0.00000000000E+00  0.00000000000E+00  0.45600000000E+02  0.45600000000E+02  0.00000000000E+00 0. -1.
         11   -1    0    0    0    0 -0.00000000000E+00 -0.00000000000E+00 -0.45600000000E+02  0.45600000000E+02  0.00000000000E+00 0. -1.
        -11    1    1    2    0    0 -0.18497617984E+01  0.69547300801E+00  0.10433038834E+02  0.10618549841E+02  0.00000000000E+00 0. -1.
         11    1    1    2    0    0  0.56475276048E+00  0.97838182837E+00 -0.42654131543E+02  0.42669088511E+02  0.00000000000E+00 0. -1.
        -15    1    1    2    0    0 -0.35098535336E+01 -0.15351472220E+01 -0.96706580794E+00  0.43322850895E+01  0.17770000000E+01 0.  1.
         15    1    1    2    0    0  0.47948625715E+01 -0.13870761441E+00  0.33188158517E+02  0.33580076558E+02  0.17770000000E+01 0. -1.
</event>
<event>
 6    1  0.3691007E-002  0.4180306E+02  0.7546771E-02  0.1337805E+00
        -11   -1    0    0    0    0  0.00000000000E+00  0.00000000000E+00  0.45600000000E+02  0.45600000000E+02  0.00000000000E+00 0.  1.
         11   -1    0    0    0    0 -0.00000000000E+00 -0.00000000000E+00 -0.45600000000E+02  0.45600000000E+02  0.00000000000E+00 0.  1.
        -11    1    1    2    0    0 -0.55971214643E+00 -0.12877471366E+01  0.42168699685E+02  0.42192070386E+02  0.00000000000E+00 0.  1.
         11    1    1    2    0    0  0.12970222681E+01  0.68803113197E-01 -0.26091476341E+01  0.29145586302E+01  0.00000000000E+00 0.  1.
        -15    1    1    2    0    0 -0.59220506819E+00 -0.26386970977E+01 -0.41353935822E+02  0.41480346746E+02  0.17770000000E+01 0.  1.
         15    1    1    2    0    0 -0.14510505347E+00  0.38576411211E+01  0.17943837712E+01  0.46130242373E+01  0.17770000000E+01 0. -1.
</event>
<event>
 6    1  0.3691007E-002  0.4634267E+02  0.7546771E-02  0.1314506E+00
        -11   -1    0    0    0    0  0.00000000000E+00  0.00000000000E+00  0.45600000000E+02  0.45600000000E+02  0.00000000000E+00 0. -1.
         11   -1    0    0    0    0 -0.00000000000E+00 -0.00000000000E+00 -0.45600000000E+02  0.45600000000E+02  0.00000000000E+00 0.  1.
        -11    1    1    2    0    0  0.58719225857E+00 -0.31517367009E+00  0.44852379892E+02  0.44857330629E+02  0.00000000000E+00 0. -1.
         11    1    1    2    0    0  0.60525593432E+00  0.48165945644E+00 -0.27155743259E+02  0.27166757674E+02  0.00000000000E+00 0.  1.
        -15    1    1    2    0    0  0.10709416495E+01  0.51791546119E+00 -0.15067406694E+02  0.15218397614E+02  0.17770000000E+01 0. -1.
         15    1    1    2    0    0 -0.22633898424E+01 -0.68440124754E+00 -0.26292299383E+01  0.39575140827E+01  0.17770000000E+01 0. -1.
</event>
<event>
 6    1  0.3691007E-002  0.4673526E+02  0.7546771E-02  0.1312637E+00
        -11   -1    0    0    0    0  0.00000000000E+00  0.00000000000E+00  0.45600000000E+02  0.45600000000E+02  0.00000000000E+00 0. -1.
         11   -1    0    0    0    0 -0.00000000000E+00 -0.00000000000E+00 -0.45600000000E+02  0.45600000000E+02  0.00000000000E+00 0. -1.
        -11    1    1    2    0    0  0.20674064525E+01  0.16842462487E+00  0.14740640829E+02  0.14885866731E+02  0.00000000000E+00 0. -1.
         11    1    1    2    0    0 -0.12019539847E+01  0.28695433575E-01 -0.44448485370E+02  0.44464742982E+02  0.00000000000E+00 0. -1.
        -15    1    1    2    0    0  0.40579347546E+01  0.20582664909E+01  0.77260678982E+01  0.91407411946E+01  0.17770000000E+01 0. -1.
         15    1    1    2    0    0 -0.49233872223E+01 -0.22553865494E+01  0.21981776642E+02  0.22708649092E+02  0.17770000000E+01 0. -1.
</event>
<event>
 6    1  0.3691007E-002  0.4271952E+02  0.7546771E-02  0.1332834E+00
        -11   -1    0    0    0    0  0.00000000000E+00  0.00000000000E+00  0.45600000000E+02  0.45600000000E+02  0.00000000000E+00 0. -1.
         11   -1    0    0    0    0 -0.00000000000E+00 -0.00000000000E+00 -0.45600000000E+02  0.45600000000E+02  0.00000000000E+00 0. -1.
        -11    1    1    2    0    0 -0.30967330757E+01  0.12224975004E+01  0.68354018903E+01  0.76030898247E+01  0.00000000000E+00 0. -1.
         11    1    1    2    0    0  0.42080660595E+01 -0.45322174131E+00 -0.43912518854E+02  0.44116012309E+02  0.00000000000E+00 0. -1.
        -15    1    1    2    0    0 -0.48918235618E+01  0.44714702214E+01  0.18399587032E+02  0.19637375478E+02  0.17770000000E+01 0. -1.
         15    1    1    2    0    0  0.37804905780E+01 -0.52407459805E+01  0.18677529932E+02  0.19843522389E+02  0.17770000000E+01 0.  1.
</event>
<event>
 6    1  0.3691007E-002  0.4696195E+02  0.7546771E-02  0.1311567E+00
        -11   -1    0    0    0    0  0.00000000000E+00  0.00000000000E+00  0.45600000000E+02  0.45600000000E+02  0.00000000000E+00 0. -1.
         11   -1    0    0    0    0 -0.00000000000E+00 -0.00000000000E+00 -0.45600000000E+02  0.45600000000E+02  0.00000000000E+00 0.  1.
        -11    1    1    2    0    0  0.49705011958E+00  0.52111305137E+00  0.41316586564E+02  0.41322862230E+02  0.00000000000E+00 0. -1.
         11    1    1    2    0    0  0.21803648732E+01 -0.14812936152E+01 -0.44159450398E+02  0.44238052412E+02  0.00000000000E+00 0.  1.
        -15    1    1    2    0    0 -0.23064698430E+01  0.30626986594E+00  0.15114380854E+01  0.32948108373E+01  0.17770000000E+01 0. -1.
         15    1    1    2    0    0 -0.37094514971E+00  0.65391069791E+00  0.13314257485E+01  0.23442745208E+01  0.17770000000E+01 0.  1.
</event>
<event>
 6    1  0.3691007E-002  0.4822011E+02  0.7546771E-02  0.1305752E+00
        -11   -1    0    0    0    0  0.00000000000E+00  0.00000000000E+00  0.45600000000E+02  0.45600000000E+02  0.00000000000E+00 0. -1.
         11   -1    0    0    0    0 -0.00000000000E+00 -0.00000000000E+00 -0.45600000000E+02  0.45600000000E+02  0.00000000000E+00 0. -1.
        -11    1    1    2    0    0  0.20465000739E+01  0.19440807867E+01  0.30621527650E+02  0.30751350674E+02  0.00000000000E+00 0. -1.
         11    1    1    2    0    0 -0.17095471807E+01 -0.19763648969E+00 -0.42945418663E+02  0.42979885945E+02  0.00000000000E+00 0. -1.
        -15    1    1    2    0    0 -0.29406574511E+01 -0.12576568541E+01  0.13562052425E+02  0.14046927137E+02  0.17770000000E+01 0. -1.
         15    1    1    2    0    0  0.26037045579E+01 -0.48878744287E+00 -0.12381614129E+01  0.34218362429E+01  0.17770000000E+01 0. -1.
</event>
<event>
 6    1  0.5876179E-002  0.4961391E+02  0.7546771E-02  0.1299543E+00
        -11   -1    0    0    0    0  0.00000000000E+00  0.00000000000E+00  0.45600000000E+02  0.45600000000E+02  0.00000000000E+00 0. -1.
         11   -1    0    0    0    0 -0.00000000000E+00 -0.00000000000E+00 -0.45600000000E+02  0.45600000000E+02  0.00000000000E+00 0. -1.
        -11    1    1    2    0    0 -0.52348846895E+00 -0.70009709851E+00  0.41576901194E+02  0.41586090091E+02  0.00000000000E+00 0. -1.
         11    1    1    2    0    0 -0.85462720197E-01 -0.93699633791E+00 -0.32302658421E+02  0.32316358197E+02  0.00000000000E+00 0. -1.
        -15    1    1    2    0    0  0.73147004619E+00  0.11169195036E+00 -0.12865340982E+02  0.13008545311E+02  0.17770000000E+01 0.  1.
         15    1    1    2    0    0 -0.12251885704E+00  0.15254014861E+01  0.35910982094E+01  0.42890064017E+01  0.17770000000E+01 0.  1.
</event>
<event>
 6    1  0.3691007E-002  0.4870902E+02  0.7546771E-02  0.1303547E+00
        -11   -1    0    0    0    0  0.00000000000E+00  0.00000000000E+00  0.45600000000E+02  0.45600000000E+02  0.00000000000E+00 0. -1.
         11   -1    0    0    0    0 -0.00000000000E+00 -0.00000000000E+00 -0.45600000000E+02  0.45600000000E+02  0.00000000000E+00 0.  1.
        -11    1    1    2    0    0  0.12706864310E+01  0.29163143699E+01  0.34583419274E+02  0.34729417245E+02  0.00000000000E+00 0. -1.
         11    1    1    2    0    0  0.57822645384E+00 -0.15735098460E+01 -0.42457901440E+02  0.42490983441E+02  0.00000000000E+00 0.  1.
        -15    1    1    2    0    0 -0.21779064737E-01  0.23092319665E+01 -0.17328771107E+01  0.33902239872E+01  0.17770000000E+01 0.  1.
         15    1    1    2    0    0 -0.18271338201E+01 -0.36520364904E+01  0.96073592771E+01  0.10589375326E+02  0.17770000000E+01 0.  1.
</event>
<event>
 6    1  0.3691007E-002  0.4774428E+02  0.7546771E-02  0.1307927E+00
        -11   -1    0    0    0    0  0.00000000000E+00  0.00000000000E+00  0.45600000000E+02  0.45600000000E+02  0.00000000000E+00 0. -1.
         11   -1    0    0    0    0 -0.00000000000E+00 -0.00000000000E+00 -0.45600000000E+02  0.45600000000E+02  0.00000000000E+00 0.  1.
        -11    1    1    2    0    0  0.10871270789E+01  0.58329487285E+00  0.39929976631E+02  0.39949031427E+02  0.00000000000E+00 0. -1.
         11    1    1    2    0    0  0.30610147841E+00 -0.85900681632E+00 -0.43446146058E+02  0.43455715367E+02  0.00000000000E+00 0.  1.
        -15    1    1    2    0    0  0.13746787340E+01  0.29071666496E+00  0.38728012216E+01  0.44867110563E+01  0.17770000000E+01 0.  1.
         15    1    1    2    0    0 -0.27679072912E+01 -0.15004721490E-01 -0.35663179554E+00  0.33085421491E+01  0.17770000000E+01 0. -1.
</event>
<event>
 6    1  0.3691007E-002  0.4598301E+02  0.7546771E-02  0.1316238E+00
        -11   -1    0    0    0    0  0.00000000000E+00  0.00000000000E+00  0.45600000000E+02  0.45600000000E+02  0.00000000000E+00 0.  1.
         11   -1    0    0    0    0 -0.00000000000E+00 -0.00000000000E+00 -0.45600000000E+02  0.45600000000E+02  0.00000000000E+00 0. -1.
        -11    1    1    2    0    0  0.21436813175E+01  0.42683113776E+00  0.45164134562E+02  0.45216994650E+02  0.00000000000E+00 0.  1.
         11    1    1    2    0    0 -0.10153467557E+01 -0.83971991830E+00 -0.22456434693E+02  0.22495055405E+02  0.00000000000E+00 0. -1.
        -15    1    1    2    0    0 -0.66883733581E+00 -0.12753086265E+01 -0.39438005291E+01  0.45590620842E+01  0.17770000000E+01 0.  1.
         15    1    1    2    0    0 -0.45949722604E+00  0.16881974070E+01 -0.18763899340E+02  0.18928887861E+02  0.17770000000E+01 0. -1.
</event>
<event>
 6    1  0.3691007E-002  0.4588280E+02  0.7546771E-02  0.1316724E+00
        -11   -1    0    0    0    0  0.00000000000E+00  0.00000000000E+00  0.45600000000E+02  0.45600000000E+02  0.00000000000E+00 0. -1.
         11   -1    0    0    0    0 -0.00000000000E+00 -0.00000000000E+00 -0.45600000000E+02  0.45600000000E+02  0.00000000000E+00 0. -1.
        -11    1    1    2    0    0 -0.11261684924E+01  0.22045714439E+01  0.45249533375E+02  0.45317200503E+02  0.00000000000E+00 0. -1.
         11    1    1    2    0    0  0.13682308796E+00 -0.51852262446E+00 -0.16345274804E+02  0.16354069667E+02  0.00000000000E+00 0. -1.
        -15    1    1    2    0    0  0.77580233741E+00 -0.23343594209E+01 -0.83111603372E+01  0.88478369290E+01  0.17770000000E+01 0. -1.
         15    1    1    2    0    0  0.21354306702E+00  0.64831060147E+00 -0.20593098234E+02  0.20680892901E+02  0.17770000000E+01 0. -1.
</event>
<event>
 6    1  0.3691007E-002  0.4618886E+02  0.7546771E-02  0.1315245E+00
        -11   -1    0    0    0    0  0.00000000000E+00  0.00000000000E+00  0.45600000000E+02  0.45600000000E+02  0.00000000000E+00 0. -1.
         11   -1    0    0    0    0 -0.00000000000E+00 -0.00000000000E+00 -0.45600000000E+02  0.45600000000E+02  0.00000000000E+00 0.  1.
        -11    1    1    2    0    0  0.55215248693E+00 -0.24822590608E+00  0.36335376626E+02  0.36340419412E+02  0.00000000000E+00 0. -1.
         11    1    1    2    0    0 -0.16585949099E+01  0.24913206662E+00 -0.44979876470E+02  0.45011135190E+02  0.00000000000E+00 0.  1.
        -15    1    1    2    0    0 -0.50737380267E+00  0.45248849506E+00  0.57728105421E+01  0.60782599951E+01  0.17770000000E+01 0. -1.
         15    1    1    2    0    0  0.16138162256E+01 -0.45339465560E+00  0.28716893017E+01  0.37701854025E+01  0.17770000000E+01 0. -1.
</event>
<event>
 6    1  0.3691007E-002  0.4369579E+02  0.7546771E-02  0.1327695E+00
        -11   -1    0    0    0    0  0.00000000000E+00  0.00000000000E+00  0.45600000000E+02  0.45600000000E+02  0.00000000000E+00 0.  1.
         11   -1    0    0    0    0 -0.00000000000E+00 -0.00000000000E+00 -0.45600000000E+02  0.45600000000E+02  0.00000000000E+00 0. -1.
        -11    1    1    2    0    0  0.38762520247E+00 -0.10657998652E+01  0.39921446285E+01  0.41501085992E+01  0.00000000000E+00 0.  1.
         11    1    1    2    0    0  0.40513048313E+01 -0.28655527464E+01 -0.44940672774E+02  0.45213809094E+02  0.00000000000E+00 0. -1.
        -15    1    1    2    0    0 -0.50072153739E+01  0.22009455465E+01  0.23001347115E+02  0.23709408790E+02  0.17770000000E+01 0.  1.
         15    1    1    2    0    0  0.56828534011E+00  0.17304070650E+01  0.17947181031E+02  0.18126673517E+02  0.17770000000E+01 0.  1.
</event>
<event>
 6    1  0.3691007E-002  0.4645336E+02  0.7546771E-02  0.1313977E+00
        -11   -1    0    0    0    0  0.00000000000E+00  0.00000000000E+00  0.45600000000E+02  0.45600000000E+02  0.00000000000E+00 0. -1.
         11   -1    0    0    0    0 -0.00000000000E+00 -0.00000000000E+00 -0.45600000000E+02  0.45600000000E+02  0.00000000000E+00 0. -1.
        -11    1    1    2    0    0 -0.58571165808E+00  0.12597777890E+01  0.37370352886E+02  0.37396167893E+02  0.00000000000E+00 0. -1.
         11    1    1    2    0    0  0.27010120203E+01  0.11645648933E+01 -0.44649861200E+02  0.44746639902E+02  0.00000000000E+00 0. -1.
        -15    1    1    2    0    0 -0.65733831873E+00 -0.24404857766E+01  0.40981431903E+01  0.51323066062E+01  0.17770000000E+01 0.  1.
         15    1    1    2    0    0 -0.14579620435E+01  0.16143094330E-01  0.31813651231E+01  0.39248855992E+01  0.17770000000E+01 0. -1.
</event>
<event>
 6    1  0.3691007E-002  0.3448721E+02  0.7546771E-02  0.1383629E+00
        -11   -1    0    0    0    0  0.00000000000E+00  0.00000000000E+00  0.45600000000E+02  0.45600000000E+02  0.00000000000E+00 0.  1.
         11   -1    0    0    0    0 -0.00000000000E+00 -0.00000000000E+00 -0.45600000000E+02  0.45600000000E+02  0.00000000000E+00 0. -1.
        -11    1    1    2    0    0  0.14778888824E+02 -0.40655519658E+00  0.36720016301E+02  0.39584598510E+02  0.00000000000E+00 0.  1.
         11    1    1    2    0    0 -0.23461465706E+00  0.57652897386E+00 -0.31122465545E+02  0.31128689200E+02  0.00000000000E+00 0. -1.
        -15    1    1    2    0    0 -0.13655248616E+02 -0.58256248159E+00  0.76940641256E+00  0.13804162743E+02  0.17770000000E+01 0.  1.
         15    1    1    2    0    0 -0.88902555108E+00  0.41258870430E+00 -0.63669571685E+01  0.66825495475E+01  0.17770000000E+01 0.  1.
</event>
<event>
 6    1  0.3691007E-002  0.4741760E+02  0.7546771E-02  0.1309437E+00
        -11   -1    0    0    0    0  0.00000000000E+00  0.00000000000E+00  0.45600000000E+02  0.45600000000E+02  0.00000000000E+00 0.  1.
         11   -1    0    0    0    0 -0.00000000000E+00 -0.00000000000E+00 -0.45600000000E+02  0.45600000000E+02  0.00000000000E+00 0.  1.
        -11    1    1    2    0    0 -0.16382387185E+01  0.26608979706E+01  0.43670747890E+02  0.43782398580E+02  0.00000000000E+00 0.  1.
         11    1    1    2    0    0  0.34698863768E+00  0.42104449369E+01 -0.10360301092E+02  0.11188569453E+02  0.00000000000E+00 0.  1.
        -15    1    1    2    0    0 -0.40200573036E+00 -0.37352623612E+01 -0.19043413848E+01  0.45714372602E+01  0.17770000000E+01 0. -1.
         15    1    1    2    0    0  0.16932558112E+01 -0.31360805462E+01 -0.31406105413E+02  0.31657594707E+02  0.17770000000E+01 0.  1.
</event>
<event>
 6    1  0.3691007E-002  0.4784482E+02  0.7546771E-02  0.1307465E+00
        -11   -1    0    0    0    0  0.00000000000E+00  0.00000000000E+00  0.45600000000E+02  0.45600000000E+02  0.00000000000E+00 0. -1.
         11   -1    0    0    0    0 -0.00000000000E+00 -0.00000000000E+00 -0.45600000000E+02  0.45600000000E+02  0.00000000000E+00 0. -1.
        -11    1    1    2    0    0  0.31430275344E+01 -0.10372882485E+01  0.43228659590E+02  0.43355179609E+02  0.00000000000E+00 0. -1.
         11    1    1    2    0    0 -0.44118202379E+01  0.31309505611E+01 -0.40460623470E+02  0.40820694027E+02  0.00000000000E+00 0. -1.
        -15    1    1    2    0    0  0.29216495010E+01 -0.16258514571E+01 -0.25017740403E+01  0.45382850413E+01  0.17770000000E+01 0. -1.
         15    1    1    2    0    0 -0.16528567976E+01 -0.46781085552E+00 -0.26626207904E+00  0.24858413233E+01  0.17770000000E+01 0. -1.
</event>
<event>
 6    1  0.3691007E-002  0.5183604E+02  0.7546771E-02  0.1290114E+00
        -11   -1    0    0    0    0  0.00000000000E+00  0.00000000000E+00  0.45600000000E+02  0.45600000000E+02  0.00000000000E+00 0. -1.
         11   -1    0    0    0    0 -0.00000000000E+00 -0.00000000000E+00 -0.45600000000E+02  0.45600000000E+02  0.00000000000E+00 0. -1.
        -11    1    1    2    0    0  0.31827634824E-02  0.91551725417E+00  0.36901009377E+02  0.36912364799E+02  0.00000000000E+00 0. -1.
         11    1    1    2    0    0 -0.90524151432E-01 -0.21755871159E+01 -0.39303686321E+02  0.39363957275E+02  0.00000000000E+00 0. -1.
        -15    1    1    2    0    0  0.65913540834E-01 -0.27950513728E+01  0.74838056833E+01  0.81842368781E+01  0.17770000000E+01 0.  1.
         15    1    1    2    0    0  0.21427847116E-01  0.40551212345E+01 -0.50811287395E+01  0.67394410485E+01  0.17770000000E+01 0.  1.
</event>
<event>
 6    1  0.3691007E-002  0.4837638E+02  0.7546771E-02  0.1305044E+00
        -11   -1    0    0    0    0  0.00000000000E+00  0.00000000000E+00  0.45600000000E+02  0.45600000000E+02  0.00000000000E+00 0. -1.
         11   -1    0    0    0    0 -0.00000000000E+00 -0.00000000000E+00 -0.45600000000E+02  0.45600000000E+02  0.00000000000E+00 0. -1.
        -11    1    1    2    0    0  0.13589761347E+01 -0.46926910181E+00  0.18924128607E+02  0.18978663630E+02  0.00000000000E+00 0. -1.
         11    1    1    2    0    0  0.98521724694E+00 -0.33574543746E+00 -0.42810969421E+02  0.42823620594E+02  0.00000000000E+00 0. -1.
        -15    1    1    2    0    0 -0.42964203970E+01  0.59430426914E+01  0.22097667729E+02  0.23350452516E+02  0.17770000000E+01 0.  1.
         15    1    1    2    0    0  0.19522270154E+01 -0.51380281521E+01  0.17891730845E+01  0.60472632601E+01  0.17770000000E+01 0. -1.
</event>
<event>
 6    1  0.3691007E-002  0.4770132E+02  0.7546771E-02  0.1308124E+00
        -11   -1    0    0    0    0  0.00000000000E+00  0.00000000000E+00  0.45600000000E+02  0.45600000000E+02  0.00000000000E+00 0.  1.
         11   -1    0    0    0    0 -0.00000000000E+00 -0.00000000000E+00 -0.45600000000E+02  0.45600000000E+02  0.00000000000E+00 0.  1.
        -11    1    1    2    0    0  0.20996507889E+00 -0.34320548067E+01  0.39575773690E+02  0.39724865622E+02  0.00000000000E+00 0.  1.
         11    1    1    2    0    0  0.55968611405E+01  0.34055785442E+01 -0.43002465797E+02  0.43498676812E+02  0.00000000000E+00 0.  1.
        -15    1    1    2    0    0 -0.35413258717E+01  0.97253198194E+00  0.25896736540E+01  0.48322816577E+01  0.17770000000E+01 0.  1.
         15    1    1    2    0    0 -0.22655003476E+01 -0.94605571949E+00  0.83701845287E+00  0.31441759079E+01  0.17770000000E+01 0. -1.
</event>
<event>
 6    1  0.5860595E-002  0.4613661E+02  0.7546771E-02  0.1315496E+00
        -11   -1    0    0    0    0  0.00000000000E+00  0.00000000000E+00  0.45600000000E+02  0.45600000000E+02  0.00000000000E+00 0.  1.
         11   -1    0    0    0    0 -0.00000000000E+00 -0.00000000000E+00 -0.45600000000E+02  0.45600000000E+02  0.00000000000E+00 0.  1.
        -11    1    1    2    0    0  0.56051057789E+00 -0.10969825028E+01  0.27729608146E+01  0.30342798814E+01  0.00000000000E+00 0.  1.
         11    1    1    2    0    0 -0.74834099356E+00 -0.10930395521E+01 -0.45043917827E+02  0.45063391827E+02  0.00000000000E+00 0.  1.
        -15    1    1    2    0    0 -0.60601915238E+00 -0.36409773250E+00  0.22509443143E+01  0.29536935653E+01  0.17770000000E+01 0.  1.
         15    1    1    2    0    0  0.79384956805E+00  0.25541197874E+01  0.40020012698E+02  0.40148634727E+02  0.17770000000E+01 0.  1.
</event>
<event>
 6    1  0.3691007E-002  0.4634621E+02  0.7546771E-02  0.1314489E+00
        -11   -1    0    0    0    0  0.00000000000E+00  0.00000000000E+00  0.45600000000E+02  0.45600000000E+02  0.00000000000E+00 0. -1.
         11   -1    0    0    0    0 -0.00000000000E+00 -0.00000000000E+00 -0.45600000000E+02  0.45600000000E+02  0.00000000000E+00 0.  1.
        -11    1    1    2    0    0  0.56074968365E+00 -0.10730745249E+01  0.44837449470E+02  0.44853793643E+02  0.00000000000E+00 0. -1.
         11    1    1    2    0    0 -0.11331527620E+01 -0.11837216176E+01 -0.33842091437E+02  0.33881741172E+02  0.00000000000E+00 0.  1.
        -15    1    1    2    0    0 -0.15885733579E+01  0.13890911326E+01 -0.68849141621E+01  0.74170689297E+01  0.17770000000E+01 0.  1.
         15    1    1    2    0    0  0.21609764363E+01  0.86770500995E+00 -0.41104438714E+01  0.50473962558E+01  0.17770000000E+01 0. -1.
</event>
<event>
 6    1  0.3691007E-002  0.4185054E+02  0.7546771E-02  0.1337544E+00
        -11   -1    0    0    0    0  0.00000000000E+00  0.00000000000E+00  0.45600000000E+02  0.45600000000E+02  0.00000000000E+00 0.  1.
         11   -1    0    0    0    0 -0.00000000000E+00 -0.00000000000E+00 -0.45600000000E+02  0.45600000000E+02  0.00000000000E+00 0. -1.
        -11    1    1    2    0    0  0.90933552638E+00  0.47447181191E+01  0.42070472050E+02  0.42346946285E+02  0.00000000000E+00 0.  1.
         11    1    1    2    0    0  0.14853886135E+01 -0.69762561439E+00 -0.41455917896E+02  0.41488386200E+02  0.00000000000E+00 0. -1.
        -15    1    1    2    0    0 -0.84703822106E+00  0.52625493540E+00 -0.86530887277E+00  0.22137990989E+01  0.17770000000E+01 0. -1.
         15    1    1    2    0    0 -0.15476859188E+01 -0.45733474402E+01  0.25075471876E+00  0.51508684162E+01  0.17770000000E+01 0. -1.
</event>
<event>
 6    1  0.3691007E-002  0.4383003E+02  0.7546771E-02  0.1327000E+00
        -11   -1    0    0    0    0  0.00000000000E+00  0.00000000000E+00  0.45600000000E+02  0.45600000000E+02  0.00000000000E+00 0.  1.
         11   -1    0    0    0    0 -0.00000000000E+00 -0.00000000000E+00 -0.45600000000E+02  0.45600000000E+02  0.00000000000E+00 0. -1.
        -11    1    1    2    0    0 -0.30664438822E+01 -0.12168594880E+01  0.44358292158E+02  0.44480803817E+02  0.00000000000E+00 0.  1.
         11    1    1    2    0    0  0.78289674337E-01  0.53074757165E+00 -0.54185568417E+01  0.54450510103E+01  0.00000000000E+00 0. -1.
        -15    1    1    2    0    0 -0.35559900582E+01  0.68340535712E-01 -0.28719072944E+02  0.28992975278E+02  0.17770000000E+01 0. -1.
         15    1    1    2    0    0  0.65441442660E+01  0.61777138067E+00 -0.10220662372E+02  0.12281169894E+02  0.17770000000E+01 0.  1.
</event>
<event>
 6    1  0.3691007E-002  0.4796608E+02  0.7546771E-02  0.1306909E+00
        -11   -1    0    0    0    0  0.00000000000E+00  0.00000000000E+00  0.45600000000E+02  0.45600000000E+02  0.00000000000E+00 0.  1.
         11   -1    0    0    0    0 -0.00000000000E+00 -0.00000000000E+00 -0.45600000000E+02  0.45600000000E+02  0.00000000000E+00 0.  1.
        -11    1    1    2    0    0  0.39931540390E+00  0.27125915018E+01  0.43146893949E+02  0.43233922595E+02  0.00000000000E+00 0.  1.
         11    1    1    2    0    0  0.80863376545E+00 -0.41683183690E+01 -0.33819217834E+02  0.34084721819E+02  0.00000000000E+00 0.  1.
        -15    1    1    2    0    0 -0.32917262557E+01  0.29124157347E+01 -0.96610767647E+01  0.10761587262E+02  0.17770000000E+01 0. -1.
         15    1    1    2    0    0  0.20837770864E+01 -0.14566888675E+01  0.33340064874E+00  0.31197683239E+01  0.17770000000E+01 0.  1.
</event>
<event>
 6    1  0.3691007E-002  0.4717566E+02  0.7546771E-02  0.1310564E+00
        -11   -1    0    0    0    0  0.00000000000E+00  0.00000000000E+00  0.45600000000E+02  0.45600000000E+02  0.00000000000E+00 0.  1.
         11   -1    0    0    0    0 -0.00000000000E+00 -0.00000000000E+00 -0.45600000000E+02  0.45600000000E+02  0.00000000000E+00 0.  1.
        -11    1    1    2    0    0 -0.45649252104E+00 -0.72974494657E+00  0.41059521892E+02  0.41068543328E+02  0.00000000000E+00 0.  1.
         11    1    1    2    0    0  0.23475378902E+00 -0.13870203581E+01 -0.44001863491E+02  0.44024344691E+02  0.00000000000E+00 0.  1.
        -15    1    1    2    0    0  0.51918909359E+00  0.16660180437E+01  0.33804865921E+01  0.41988798549E+01  0.17770000000E+01 0. -1.
         15    1    1    2    0    0 -0.29745036157E+00  0.45074726097E+00 -0.43814499277E+00  0.19082321257E+01  0.17770000000E+01 0.  1.
</event>
<event>
 6    1  0.3691007E-002  0.4671062E+02  0.7546771E-02  0.1312753E+00
        -11   -1    0    0    0    0  0.00000000000E+00  0.00000000000E+00  0.45600000000E+02  0.45600000000E+02  0.00000000000E+00 0.  1.
         11   -1    0    0    0    0 -0.00000000000E+00 -0.00000000000E+00 -0.45600000000E+02  0.45600000000E+02  0.00000000000E+00 0. -1.
        -11    1    1    2    0    0 -0.52121788148E+00 -0.24380723985E+00  0.34705678355E+02  0.34710448285E+02  0.00000000000E+00 0.  1.
         11    1    1    2    0    0  0.13470153475E+01  0.11323645530E+01 -0.44454559387E+02  0.44489375699E+02  0.00000000000E+00 0. -1.
        -15    1    1    2    0    0  0.17143958273E+01 -0.17214423301E+01  0.74981046129E+01  0.80797164885E+01  0.17770000000E+01 0.  1.
         15    1    1    2    0    0 -0.25401932933E+01  0.83288501695E+00  0.22507764192E+01  0.39204595277E+01  0.17770000000E+01 0. -1.
</event>
<event>
 6    1  0.3691007E-002  0.2936339E+02  0.7546771E-02  0.1424489E+00
        -11   -1    0    0    0    0  0.00000000000E+00  0.00000000000E+00  0.45600000000E+02  0.45600000000E+02  0.00000000000E+00 0.  1.
         11   -1    0    0    0    0 -0.00000000000E+00 -0.00000000000E+00 -0.45600000000E+02  0.45600000000E+02  0.00000000000E+00 0. -1.
        -11    1    1    2    0    0  0.21313256928E+00 -0.13114806976E+01  0.40407874178E+02  0.40429713116E+02  0.00000000000E+00 0.  1.
         11    1    1    2    0    0 -0.28097755684E+00  0.10067097572E+01 -0.30518206287E+01  0.32258366469E+01  0.00000000000E+00 0. -1.
        -15    1    1    2    0    0 -0.22923652007E+01 -0.14254632101E+02 -0.19037015082E+02  0.23958613207E+02  0.17770000000E+01 0.  1.
         15    1    1    2    0    0  0.23602101882E+01  0.14559403042E+02 -0.18319038467E+02  0.23585837030E+02  0.17770000000E+01 0. -1.
</event>
<event>
 6    1  0.3691007E-002  0.4112773E+02  0.7546771E-02  0.1341564E+00
        -11   -1    0    0    0    0  0.00000000000E+00  0.00000000000E+00  0.45600000000E+02  0.45600000000E+02  0.00000000000E+00 0.  1.
         11   -1    0    0    0    0 -0.00000000000E+00 -0.00000000000E+00 -0.45600000000E+02  0.45600000000E+02  0.00000000000E+00 0. -1.
        -11    1    1    2    0    0  0.49473964682E+00 -0.75949797074E+00  0.42873731049E+02  0.42883311656E+02  0.00000000000E+00 0.  1.
         11    1    1    2    0    0 -0.67434027563E+01 -0.90642072852E+00 -0.39123899308E+02  0.39711139197E+02  0.00000000000E+00 0. -1.
        -15    1    1    2    0    0  0.38251738644E+01  0.81160474095E+00 -0.92508219539E+00  0.43936503521E+01  0.17770000000E+01 0.  1.
         15    1    1    2    0    0  0.24234892450E+01  0.85431395830E+00 -0.28247495462E+01  0.42118987949E+01  0.17770000000E+01 0. -1.
</event>
<event>
 6    1  0.3691007E-002  0.4686347E+02  0.7546771E-02  0.1312031E+00
        -11   -1    0    0    0    0  0.00000000000E+00  0.00000000000E+00  0.45600000000E+02  0.45600000000E+02  0.00000000000E+00 0.  1.
         11   -1    0    0    0    0 -0.00000000000E+00 -0.00000000000E+00 -0.45600000000E+02  0.45600000000E+02  0.00000000000E+00 0.  1.
        -11    1    1    2    0    0 -0.99300987166E+00 -0.82937773324E+00  0.44317649151E+02  0.44336530787E+02  0.00000000000E+00 0.  1.
         11    1    1    2    0    0 -0.62497861492E+00  0.43228435448E+00 -0.35767199649E+02  0.35775271330E+02  0.00000000000E+00 0.  1.
        -15    1    1    2    0    0  0.90926662749E+00  0.47991851923E+00 -0.89068599545E+01  0.91404032096E+01  0.17770000000E+01 0.  1.
         15    1    1    2    0    0  0.70872185910E+00 -0.82825140473E-01  0.35641045246E+00  0.19477946730E+01  0.17770000000E+01 0.  1.
</event>
<event>
 6    1  0.3691007E-002  0.4798698E+02  0.7546771E-02  0.1306814E+00
        -11   -1    0    0    0    0  0.00000000000E+00  0.00000000000E+00  0.45600000000E+02  0.45600000000E+02  0.00000000000E+00 0.  1.
         11   -1    0    0    0    0 -0.00000000000E+00 -0.00000000000E+00 -0.45600000000E+02  0.45600000000E+02  0.00000000000E+00 0. -1.
        -11    1    1    2    0    0 -0.49872739218E+00 -0.24259413935E+01  0.33353349181E+02  0.33445176368E+02  0.00000000000E+00 0.  1.
         11    1    1    2    0    0 -0.16646010162E+00  0.14095002406E+01 -0.43189710575E+02  0.43213024651E+02  0.00000000000E+00 0. -1.
        -15    1    1    2    0    0 -0.17589566976E+01 -0.20819846507E+01 -0.54473919818E+00  0.32989480966E+01  0.17770000000E+01 0.  1.
         15    1    1    2    0    0  0.24241441914E+01  0.30984258036E+01  0.10381100592E+02  0.11242850885E+02  0.17770000000E+01 0. -1.
</event>
<event>
 6    1  0.3691007E-002  0.4724922E+02  0.7546771E-02  0.1310221E+00
        -11   -1    0    0    0    0  0.00000000000E+00  0.00000000000E+00  0.45600000000E+02  0.45600000000E+02  0.00000000000E+00 0.  1.
         11   -1    0    0    0    0 -0.00000000000E+00 -0.00000000000E+00 -0.45600000000E+02  0.45600000000E+02  0.00000000000E+00 0.  1.
        -11    1    1    2    0    0  0.96525037218E+00  0.12237119705E+01  0.28935539106E+02  0.28977484409E+02  0.00000000000E+00 0.  1.
         11    1    1    2    0    0 -0.13163473186E+01 -0.12180706587E+01 -0.43914173898E+02  0.43950780830E+02  0.00000000000E+00 0.  1.
        -15    1    1    2    0    0  0.50143598187E+01  0.13139488242E-01  0.92812047802E+01  0.10697778658E+02  0.17770000000E+01 0.  1.
         15    1    1    2    0    0 -0.46632628723E+01 -0.18780799996E-01  0.56974300113E+01  0.75739561042E+01  0.17770000000E+01 0.  1.
</event>
<event>
 6    1  0.3691007E-002  0.4678045E+02  0.7546771E-02  0.1312423E+00
        -11   -1    0    0    0    0  0.00000000000E+00  0.00000000000E+00  0.45600000000E+02  0.45600000000E+02  0.00000000000E+00 0.  1.
         11   -1    0    0    0    0 -0.00000000000E+00 -0.00000000000E+00 -0.45600000000E+02  0.45600000000E+02  0.00000000000E+00 0. -1.
        -11    1    1    2    0    0  0.90900274496E+00  0.43481711499E+00  0.44408114434E+02  0.44419545017E+02  0.00000000000E+00 0.  1.
         11    1    1    2    0    0  0.22316109187E+01 -0.19068835961E+01 -0.37493852850E+02  0.37608580057E+02  0.00000000000E+00 0. -1.
        -15    1    1    2    0    0 -0.20710372795E+01 -0.41495906148E+00 -0.51948627697E+01  0.58826622061E+01  0.17770000000E+01 0.  1.
         15    1    1    2    0    0 -0.10695763841E+01  0.18870255425E+01 -0.17193988143E+01  0.32892127208E+01  0.17770000000E+01 0. -1.
</event>
<event>
 6    1  0.3691007E-002  0.4891560E+02  0.7546771E-02  0.1302624E+00
        -11   -1    0    0    0    0  0.00000000000E+00  0.00000000000E+00  0.45600000000E+02  0.45600000000E+02  0.00000000000E+00 0.  1.
         11   -1    0    0    0    0 -0.00000000000E+00 -0.00000000000E+00 -0.45600000000E+02  0.45600000000E+02  0.00000000000E+00 0. -1.
        -11    1    1    2    0    0 -0.53928833769E+00  0.25632180828E+00  0.42280183323E+02  0.42284399424E+02  0.00000000000E+00 0.  1.
         11    1    1    2    0    0  0.19543942409E+00 -0.48798474488E+00 -0.38453497940E+02  0.38457090757E+02  0.00000000000E+00 0. -1.
        -15    1    1    2    0    0  0.57013932802E+00 -0.23822915491E+01 -0.59283285686E+01  0.66560634384E+01  0.17770000000E+01 0. -1.
         15    1    1    2    0    0 -0.22629041442E+00  0.26139544857E+01  0.21016431849E+01  0.38024463811E+01  0.17770000000E+01 0. -1.
</event>
<event>
 6    1  0.3691007E-002  0.4772597E+02  0.7546771E-02  0.1308011E+00
        -11   -1    0    0    0    0  0.00000000000E+00  0.00000000000E+00  0.45600000000E+02  0.45600000000E+02  0.00000000000E+00 0.  1.
         11   -1    0    0    0    0 -0.00000000000E+00 -0.00000000000E+00 -0.45600000000E+02  0.45600000000E+02  0.00000000000E+00 0. -1.
        -11    1    1    2    0    0 -0.22570097594E+01 -0.59921458232E+00  0.43411268182E+02  0.43474030826E+02  0.00000000000E+00 0.  1.
         11    1    1    2    0    0  0.76609225221E-02 -0.91342700264E+00 -0.41419049676E+02  0.41429121203E+02  0.00000000000E+00 0. -1.
        -15    1    1    2    0    0  0.30973328144E+01  0.17702915898E+01 -0.14067417116E+01  0.42265889461E+01  0.17770000000E+01 0.  1.
         15    1    1    2    0    0 -0.84798397756E+00 -0.25765000487E+00 -0.58547679355E+00  0.20702590241E+01  0.17770000000E+01 0.  1.
</event>
<event>
 6    1  0.3691007E-002  0.4923408E+02  0.7546771E-02  0.1301212E+00
        -11   -1    0    0    0    0  0.00000000000E+00  0.00000000000E+00  0.45600000000E+02  0.45600000000E+02  0.00000000000E+00 0. -1.
         11   -1    0    0    0    0 -0.00000000000E+00 -0.00000000000E+00 -0.45600000000E+02  0.45600000000E+02  0.00000000000E+00 0.  1.
        -11    1    1    2    0    0 -0.34021187324E+00  0.50906409501E+00  0.22000039115E+02  0.22008557686E+02  0.00000000000E+00 0. -1.
         11    1    1    2    0    0  0.60414458163E+00  0.90120796482E-03 -0.41961572794E+02  0.41965921685E+02  0.00000000000E+00 0.  1.
        -15    1    1    2    0    0  0.32833300416E+01 -0.24351566156E+01 -0.19567996982E+01  0.48679603494E+01  0.17770000000E+01 0.  1.
         15    1    1    2    0    0 -0.35472627500E+01  0.19251913127E+01  0.21918333378E+02  0.22357560280E+02  0.17770000000E+01 0. -1.
</event>
<event>
 6    1  0.3691007E-002  0.4613960E+02  0.7546771E-02  0.1315482E+00
        -11   -1    0    0    0    0  0.00000000000E+00  0.00000000000E+00  0.45600000000E+02  0.45600000000E+02  0.00000000000E+00 0.  1.
         11   -1    0    0    0    0 -0.00000000000E+00 -0.00000000000E+00 -0.45600000000E+02  0.45600000000E+02  0.00000000000E+00 0.  1.
        -11    1    1    2    0    0  0.48836077255E+01  0.30424222540E+01  0.44691543012E+02  0.45060403620E+02  0.00000000000E+00 0.  1.
         11    1    1    2    0    0 -0.15860630731E+01 -0.13147163040E+01 -0.21449900450E+02  0.21548603304E+02  0.00000000000E+00 0.  1.
        -15    1    1    2    0    0 -0.65920951033E+00  0.21474181678E+01 -0.62477976339E+01  0.68730390833E+01  0.17770000000E+01 0. -1.
         15    1    1    2    0    0 -0.26383351421E+01 -0.38751241179E+01 -0.16993844928E+02  0.17717953992E+02  0.17770000000E+01 0.  1.
</event>
<event>
 6    1  0.3691007E-002  0.4908700E+02  0.7546771E-02  0.1301862E+00
        -11   -1    0    0    0    0  0.00000000000E+00  0.00000000000E+00  0.45600000000E+02  0.45600000000E+02  0.00000000000E+00 0.  1.
         11   -1    0    0    0    0 -0.00000000000E+00 -0.00000000000E+00 -0.45600000000E+02  0.45600000000E+02  0.00000000000E+00 0. -1.
        -11    1    1    2    0    0  0.46045578721E+01 -0.15985413617E+01  0.41829978391E+02  0.42112995380E+02  0.00000000000E+00 0.  1.
         11    1    1    2    0    0 -0.18208877816E+00  0.54825967510E+00 -0.21638152558E+02  0.21645863140E+02  0.00000000000E+00 0. -1.
        -15    1    1    2    0    0 -0.70496012750E+01 -0.63812953722E+01 -0.68857498664E+01  0.11873882642E+02  0.17770000000E+01 0.  1.
         15    1    1    2    0    0  0.26271321811E+01  0.74315770588E+01 -0.13306075967E+02  0.15567258838E+02  0.17770000000E+01 0. -1.
</event>
<event>
 6    1  0.3691007E-002  0.4586979E+02  0.7546771E-02  0.1316787E+00
        -11   -1    0    0    0    0  0.00000000000E+00  0.00000000000E+00  0.45600000000E+02  0.45600000000E+02  0.00000000000E+00 0. -1.
         11   -1    0    0    0    0 -0.00000000000E+00 -0.00000000000E+00 -0.45600000000E+02  0.45600000000E+02  0.00000000000E+00 0.  1.
        -11    1    1    2    0    0  0.82360433068E+00 -0.31798193874E+00  0.23232626587E+02  0.23249395148E+02  0.00000000000E+00 0. -1.
         11    1    1    2    0    0 -0.37607482695E+00  0.20556500980E+01 -0.45282009619E+02  0.45330205435E+02  0.00000000000E+00 0.  1.
        -15    1    1    2    0    0 -0.99531781230E+00 -0.96036678761E-01  0.15191127738E+02  0.15327360227E+02  0.17770000000E+01 0. -1.
         15    1    1    2    0    0  0.54778830856E+00 -0.16416314805E+01  0.68582552941E+01  0.72930391901E+01  0.17770000000E+01 0.  1.
</event>
<event>
 6    1  0.3691007E-002  0.4780243E+02  0.7546771E-02  0.1307659E+00
        -11   -1    0    0    0    0  0.00000000000E+00  0.00000000000E+00  0.45600000000E+02  0.45600000000E+02  0.00000000000E+00 0.  1.
         11   -1    0    0    0    0 -0.00000000000E+00 -0.00000000000E+00 -0.45600000000E+02  0.45600000000E+02  0.00000000000E+00 0. -1.
        -11    1    1    2    0    0  0.93947958568E+01 -0.55073912644E+01  0.42008994165E+02  0.43397570652E+02  0.00000000000E+00 0.  1.
         11    1    1    2    0    0  0.15233594367E+01 -0.16347003219E+01 -0.13675509951E+02  0.13856855398E+02  0.00000000000E+00 0. -1.
        -15    1    1    2    0    0 -0.15879233319E+01  0.26904684473E+01  0.14466397796E+00  0.35970512424E+01  0.17770000000E+01 0.  1.
         15    1    1    2    0    0 -0.93302319616E+01  0.44516231390E+01 -0.28478148192E+02  0.30348522707E+02  0.17770000000E+01 0. -1.
</event>
<event>
 6    1  0.3691007E-002  0.4785389E+02  0.7546771E-02  0.1307423E+00
        -11   -1    0    0    0    0  0.00000000000E+00  0.00000000000E+00  0.45600000000E+02  0.45600000000E+02  0.00000000000E+00 0.  1.
         11   -1    0    0    0    0 -0.00000000000E+00 -0.00000000000E+00 -0.45600000000E+02  0.45600000000E+02  0.00000000000E+00 0. -1.
        -11    1    1    2    0    0 -0.52697940740E+00 -0.14517141127E+01  0.43318587492E+02  0.43346109439E+02  0.00000000000E+00 0.  1.
         11    1    1    2    0    0 -0.78138652594E+00  0.13526503541E+01 -0.37977290634E+02  0.38009404517E+02  0.00000000000E+00 0. -1.
        -15    1    1    2    0    0  0.21851411789E+01  0.16497670509E+01  0.66615380792E+00  0.33313755702E+01  0.17770000000E+01 0. -1.
         15    1    1    2    0    0 -0.87677524553E+00 -0.15507032923E+01 -0.60074506664E+01  0.65131104736E+01  0.17770000000E+01 0.  1.
</event>
<event>
 6    1  0.3691007E-002  0.4761459E+02  0.7546771E-02  0.1308524E+00
        -11   -1    0    0    0    0  0.00000000000E+00  0.00000000000E+00  0.45600000000E+02  0.45600000000E+02  0.00000000000E+00 0.  1.
         11   -1    0    0    0    0 -0.00000000000E+00 -0.00000000000E+00 -0.45600000000E+02  0.45600000000E+02  0.00000000000E+00 0.  1.
        -11    1    1    2    0    0 -0.50871270193E-01  0.50665585713E+00  0.25576496713E+02  0.25581565084E+02  0.00000000000E+00 0.  1.
         11    1    1    2    0    0 -0.18380260919E+01  0.23435070346E+01 -0.43483536080E+02  0.43585413559E+02  0.00000000000E+00 0.  1.
        -15    1    1    2    0    0  0.29388733063E+01 -0.39772965646E+01  0.18797630723E+02  0.19518312275E+02  0.17770000000E+01 0.  1.
         15    1    1    2    0    0 -0.10499759442E+01  0.11271336728E+01 -0.89059135636E+00  0.25147090814E+01  0.17770000000E+01 0. -1.
</event>
<event>
 6    1  0.3691007E-002  0.5020829E+02  0.7546771E-02  0.1296966E+00
        -11   -1    0    0    0    0  0.00000000000E+00  0.00000000000E+00  0.45600000000E+02  0.45600000000E+02  0.00000000000E+00 0.  1.
         11   -1    0    0    0    0 -0.00000000000E+00 -0.00000000000E+00 -0.45600000000E+02  0.45600000000E+02  0.00000000000E+00 0. -1.
        -11    1    1    2    0    0 -0.44664051263E+00  0.39603000995E+00  0.40987361875E+02  0.40991708442E+02  0.00000000000E+00 0.  1.
         11    1    1    2    0    0  0.75428385243E+00 -0.18634175508E+00 -0.24547562983E+02  0.24559855777E+02  0.00000000000E+00 0. -1.
        -15    1    1    2    0    0 -0.91589357170E+01 -0.10331732043E+01 -0.12815338345E+02  0.15885344700E+02  0.17770000000E+01 0. -1.
         15    1    1    2    0    0  0.88512923772E+01  0.82348494938E+00 -0.36244605466E+01  0.97630910813E+01  0.17770000000E+01 0.  1.
</event>
<event>
 6    1  0.3691007E-002  0.4688742E+02  0.7546771E-02  0.1311918E+00
        -11   -1    0    0    0    0  0.00000000000E+00  0.00000000000E+00  0.45600000000E+02  0.45600000000E+02  0.00000000000E+00 0.  1.
         11   -1    0    0    0    0 -0.00000000000E+00 -0.00000000000E+00 -0.45600000000E+02  0.45600000000E+02  0.00000000000E+00 0.  1.
        -11    1    1    2    0    0 -0.72897952322E+00 -0.31006963142E+00  0.44305494241E+02  0.44312575803E+02  0.00000000000E+00 0.  1.
         11    1    1    2    0    0  0.71228872258E+00 -0.22238267868E+00 -0.39445714216E+02  0.39452771503E+02  0.00000000000E+00 0.  1.
        -15    1    1    2    0    0  0.17147525687E+01 -0.10447374258E+01 -0.26746677594E+01  0.37872720108E+01  0.17770000000E+01 0.  1.
         15    1    1    2    0    0 -0.16980617681E+01  0.15771897359E+01 -0.21851122660E+01  0.36473806829E+01  0.17770000000E+01 0. -1.
</event>
<event>
 6    1  0.3691007E-002  0.4889368E+02  0.7546771E-02  0.1302722E+00
        -11   -1    0    0    0    0  0.00000000000E+00  0.00000000000E+00  0.45600000000E+02  0.45600000000E+02  0.00000000000E+00 0. -1.
         11   -1    0    0    0    0 -0.00000000000E+00 -0.00000000000E+00 -0.45600000000E+02  0.45600000000E+02  0.00000000000E+00 0.  1.
        -11    1    1    2    0    0  0.19987419638E+01 -0.43486216913E+01  0.42034733866E+02  0.42306315501E+02  0.00000000000E+00 0. -1.
         11    1    1    2    0    0 -0.11299021829E+01 -0.16422993294E+01 -0.35981094520E+02  0.36036273238E+02  0.00000000000E+00 0.  1.
        -15    1    1    2    0    0  0.30361934196E+01  0.30307001148E+01  0.28338593087E+00  0.46520587112E+01  0.17770000000E+01 0. -1.
         15    1    1    2    0    0 -0.39050332004E+01  0.29602209059E+01 -0.63370252766E+01  0.82053525497E+01  0.17770000000E+01 0.  1.
</event>
<event>
 6    1  0.3691007E-002  0.4255100E+02  0.7546771E-02  0.1333737E+00
        -11   -1    0    0    0    0  0.00000000000E+00  0.00000000000E+00  0.45600000000E+02  0.45600000000E+02  0.00000000000E+00 0.  1.
         11   -1    0    0    0    0 -0.00000000000E+00 -0.00000000000E+00 -0.45600000000E+02  0.45600000000E+02  0.00000000000E+00 0. -1.
        -11    1    1    2    0    0 -0.26874801152E+01  0.99409422830E+00  0.39860171552E+02  0.39963033530E+02  0.00000000000E+00 0.  1.
         11    1    1    2    0    0 -0.44595809298E+01  0.73379833854E+01 -0.55866437147E+01  0.10244239856E+02  0.00000000000E+00 0. -1.
        -15    1    1    2    0    0 -0.36547944114E+01 -0.69656137496E+00  0.94284704764E-01  0.41242379350E+01  0.17770000000E+01 0.  1.
         15    1    1    2    0    0  0.10801855456E+02 -0.76355162388E+01 -0.34367812543E+02  0.36868488679E+02  0.17770000000E+01 0. -1.
</event>
<event>
 6    1  0.3691007E-002  0.4130436E+02  0.7546771E-02  0.1340573E+00
        -11   -1    0    0    0    0  0.00000000000E+00  0.00000000000E+00  0.45600000000E+02  0.45600000000E+02  0.00000000000E+00 0.  1.
         11   -1    0    0    0    0 -0.00000000000E+00 -0.00000000000E+00 -0.45600000000E+02  0.45600000000E+02  0.00000000000E+00 0. -1.
        -11    1    1    2    0    0  0.19516144460E+01 -0.93604765750E+00  0.40763028035E+02  0.40820453681E+02  0.00000000000E+00 0.  1.
         11    1    1    2    0    0  0.19416554987E+01  0.40763728489E+01 -0.41701156500E+02  0.41944884016E+02  0.00000000000E+00 0. -1.
        -15    1    1    2    0    0  0.11880080668E+01 -0.81940091797E+00  0.11641936545E+01  0.25682400387E+01  0.17770000000E+01 0. -1.
         15    1    1    2    0    0 -0.50812780115E+01 -0.23209242735E+01 -0.22606518940E+00  0.58664222643E+01  0.17770000000E+01 0.  1.
</event>
<event>
 6    1  0.3691007E-002  0.4641723E+02  0.7546771E-02  0.1314150E+00
        -11   -1    0    0    0    0  0.00000000000E+00  0.00000000000E+00  0.45600000000E+02  0.45600000000E+02  0.00000000000E+00 0.  1.
         11   -1    0    0    0    0 -0.00000000000E+00 -0.00000000000E+00 -0.45600000000E+02  0.45600000000E+02  0.00000000000E+00 0. -1.
        -11    1    1    2    0    0  0.91595971643E+00  0.24726068683E+01  0.24834053589E+02  0.24973645801E+02  0.00000000000E+00 0.  1.
         11    1    1    2    0    0 -0.96043173616E+00 -0.22808532999E+00 -0.44771888799E+02  0.44782769886E+02  0.00000000000E+00 0. -1.
        -15    1    1    2    0    0 -0.99872953342E-01 -0.41947976840E+01  0.16440242538E+02  0.17060058790E+02  0.17770000000E+01 0.  1.
         15    1    1    2    0    0  0.14434497307E+00  0.19502761457E+01  0.34975926720E+01  0.43835255235E+01  0.17770000000E+01 0. -1.
</event>
<event>
 6    1  0.3691007E-002  0.4649434E+02  0.7546771E-02  0.1313781E+00
        -11   -1    0    0    0    0  0.00000000000E+00  0.00000000000E+00  0.45600000000E+02  0.45600000000E+02  0.00000000000E+00 0.  1.
         11   -1    0    0    0    0 -0.00000000000E+00 -0.00000000000E+00 -0.45600000000E+02  0.45600000000E+02  0.00000000000E+00 0.  1.
        -11    1    1    2    0    0  0.14043881010E+00 -0.94465939872E+00  0.44695462122E+02  0.44705664504E+02  0.00000000000E+00 0.  1.
         11    1    1    2    0    0  0.19903337564E+01  0.82444097948E+00 -0.33082022433E+02  0.33152094046E+02  0.00000000000E+00 0.  1.
        -15    1    1    2    0    0 -0.19903525757E+01 -0.10525084021E+01 -0.10597893146E+02  0.10979177813E+02  0.17770000000E+01 0.  1.
         15    1    1    2    0    0 -0.14041999087E+00  0.11727268213E+01 -0.10155465433E+01  0.23630636371E+01  0.17770000000E+01 0.  1.
</event>
<event>
 6    1  0.3691007E-002  0.4930352E+02  0.7546771E-02  0.1300905E+00
        -11   -1    0    0    0    0  0.00000000000E+00  0.00000000000E+00  0.45600000000E+02  0.45600000000E+02  0.00000000000E+00 0. -1.
         11   -1    0    0    0    0 -0.00000000000E+00 -0.00000000000E+00 -0.45600000000E+02  0.45600000000E+02  0.00000000000E+00 0.  1.
        -11    1    1    2    0    0  0.69660859522E+00 -0.26316216251E+00  0.41889866303E+02  0.41896484539E+02  0.00000000000E+00 0. -1.
         11    1    1    2    0    0  0.12031164240E+01  0.33873062684E+01 -0.37071619822E+02  0.37245487365E+02  0.00000000000E+00 0.  1.
        -15    1    1    2    0    0  0.33425110652E+01  0.10627875026E+01 -0.28104663261E+01  0.48330474306E+01  0.17770000000E+01 0.  1.
         15    1    1    2    0    0 -0.52422360845E+01 -0.41869316085E+01 -0.20077801551E+01  0.72249806651E+01  0.17770000000E+01 0. -1.
</event>
<event>
 6    1  0.3691007E-002  0.4868245E+02  0.7546771E-02  0.1303666E+00
        -11   -1    0    0    0    0  0.00000000000E+00  0.00000000000E+00  0.45600000000E+02  0.45600000000E+02  0.00000000000E+00 0. -1.
         11   -1    0    0    0    0 -0.00000000000E+00 -0.00000000000E+00 -0.45600000000E+02  0.45600000000E+02  0.00000000000E+00 0. -1.
        -11    1    1    2    0    0 -0.27448301324E+00  0.55465239159E+00  0.42513043715E+02  0.42517547743E+02  0.00000000000E+00 0. -1.
         11    1    1    2    0    0 -0.23391343001E+00  0.13971788111E+01 -0.35319988436E+02  0.35348386204E+02  0.00000000000E+00 0. -1.
        -15    1    1    2    0    0  0.37974175242E+01 -0.47825745697E+01 -0.29532932821E+01  0.70123512161E+01  0.17770000000E+01 0. -1.
         15    1    1    2    0    0 -0.32890210810E+01  0.28307433670E+01 -0.42397619965E+01  0.63217148360E+01  0.17770000000E+01 0.  1.
</event>
<event>
 6    1  0.3691007E-002  0.4591725E+02  0.7546771E-02  0.1316557E+00
        -11   -1    0    0    0    0  0.00000000000E+00  0.00000000000E+00  0.45600000000E+02  0.45600000000E+02  0.00000000000E+00 0. -1.
         11   -1    0    0    0    0 -0.00000000000E+00 -0.00000000000E+00 -0.45600000000E+02  0.45600000000E+02  0.00000000000E+00 0. -1.
        -11    1    1    2    0    0 -0.12622935601E+00  0.81427327526E+00  0.33284182296E+02  0.33294380395E+02  0.00000000000E+00 0. -1.
         11    1    1    2    0    0 -0.31956687306E+00 -0.13571664765E+01 -0.45261281013E+02  0.45282751493E+02  0.00000000000E+00 0. -1.
        -15    1    1    2    0    0  0.98883347149E+00  0.28867363238E+00  0.73090088224E+01  0.75921316550E+01  0.17770000000E+01 0. -1.
         15    1    1    2    0    0 -0.54303724242E+00  0.25421956890E+00  0.46680898947E+01  0.50307364571E+01  0.17770000000E+01 0.  1.
</event>
<event>
 6    1  0.3691007E-002  0.4800178E+02  0.7546771E-02  0.1306746E+00
        -11   -1    0    0    0    0  0.00000000000E+00  0.00000000000E+00  0.45600000000E+02  0.45600000000E+02  0.00000000000E+00 0.  1.
         11   -1    0    0    0    0 -0.00000000000E+00 -0.00000000000E+00 -0.45600000000E+02  0.45600000000E+02  0.00000000000E+00 0.  1.
        -11    1    1    2    0    0  0.10527723686E+01  0.16379514576E+01  0.43154314962E+02  0.43198218881E+02  0.00000000000E+00 0.  1.
         11    1    1    2    0    0  0.40710202418E+00  0.36782138042E+00 -0.35765228932E+02  0.35769437026E+02  0.00000000000E+00 0.  1.
        -15    1    1    2    0    0 -0.11967212433E+01 -0.42039373563E+01 -0.80377827902E+01  0.93203493611E+01  0.17770000000E+01 0.  1.
         15    1    1    2    0    0 -0.26315314949E+00  0.21981645183E+01  0.64869675961E+00  0.29119947314E+01  0.17770000000E+01 0. -1.
</event>
<event>
 6    1  0.3691007E-002  0.4942996E+02  0.7546771E-02  0.1300349E+00
        -11   -1    0    0    0    0  0.00000000000E+00  0.00000000000E+00  0.45600000000E+02  0.45600000000E+02  0.00000000000E+00 0.  1.
         11   -1    0    0    0    0 -0.00000000000E+00 -0.00000000000E+00 -0.45600000000E+02  0.45600000000E+02  0.00000000000E+00 0. -1.
        -11    1    1    2    0    0 -0.84609001514E+01 -0.21777981562E+01  0.40846136394E+02  0.41770043027E+02  0.00000000000E+00 0.  1.
         11    1    1    2    0    0 -0.33250115598E+00  0.15840076227E+01 -0.80359983790E+01  0.81973719639E+01  0.00000000000E+00 0. -1.
        -15    1    1    2    0    0 -0.77947663731E+00 -0.25331842406E+01  0.27616331810E+01  0.42200655269E+01  0.17770000000E+01 0.  1.
         15    1    1    2    0    0  0.95728779447E+01  0.31269747740E+01 -0.35571771196E+02  0.37012519482E+02  0.17770000000E+01 0. -1.
</event>
<event>
 6    1  0.3691007E-002  0.4887762E+02  0.7546771E-02  0.1302793E+00
        -11   -1    0    0    0    0  0.00000000000E+00  0.00000000000E+00  0.45600000000E+02  0.45600000000E+02  0.00000000000E+00 0.  1.
         11   -1    0    0    0    0 -0.00000000000E+00 -0.00000000000E+00 -0.45600000000E+02  0.45600000000E+02  0.00000000000E+00 0. -1.
        -11    1    1    2    0    0  0.37689567317E+01  0.11991036313E+01  0.36082514866E+02  0.36298633079E+02  0.00000000000E+00 0.  1.
         11    1    1    2    0    0  0.38973701160E+00  0.17213564869E+01 -0.42285560328E+02  0.42322376769E+02  0.00000000000E+00 0. -1.
        -15    1    1    2    0    0  0.10677444803E+01  0.11938775635E+01 -0.10196889462E+01  0.26005607970E+01  0.17770000000E+01 0. -1.
         15    1    1    2    0    0 -0.52264382236E+01 -0.41143376817E+01  0.72227344082E+01  0.99784293551E+01  0.17770000000E+01 0.  1.
</event>
<event>
 6    1  0.3691007E-002  0.4587774E+02  0.7546771E-02  0.1316748E+00
        -11   -1    0    0    0    0  0.00000000000E+00  0.00000000000E+00  0.45600000000E+02  0.45600000000E+02  0.00000000000E+00 0. -1.
         11   -1    0    0    0    0 -0.00000000000E+00 -0.00000000000E+00 -0.45600000000E+02  0.45600000000E+02  0.00000000000E+00 0. -1.
        -11    1    1    2    0    0  0.74890672599E+00 -0.10419376491E+01  0.24795668876E+02  0.24828847947E+02  0.00000000000E+00 0. -1.
         11    1    1    2    0    0 -0.65063119933E+00 -0.29059373942E+00 -0.45316654744E+02  0.45322256816E+02  0.00000000000E+00 0. -1.
        -15    1    1    2    0    0  0.10533812617E+01  0.10785452778E+01  0.74780460177E+01  0.78327372764E+01  0.17770000000E+01 0. -1.
         15    1    1    2    0    0 -0.11516567883E+01  0.25398611074E+00  0.13042939851E+02  0.13216157961E+02  0.17770000000E+01 0.  1.
</event>
<event>
 6    1  0.3691007E-002  0.4755116E+02  0.7546771E-02  0.1308818E+00
        -11   -1    0    0    0    0  0.00000000000E+00  0.00000000000E+00  0.45600000000E+02  0.45600000000E+02  0.00000000000E+00 0. -1.
         11   -1    0    0    0    0 -0.00000000000E+00 -0.00000000000E+00 -0.45600000000E+02  0.45600000000E+02  0.00000000000E+00 0.  1.
        -11    1    1    2    0    0 -0.76664464244E+00 -0.29097115698E+00  0.43641132551E+02  0.43648835707E+02  0.00000000000E+00 0. -1.
         11    1    1    2    0    0 -0.30392332316E+00 -0.55551560717E+00 -0.41667720179E+02  0.41672531384E+02  0.00000000000E+00 0.  1.
        -15    1    1    2    0    0 -0.13965996646E+01  0.95581955685E+00 -0.12380529297E+01  0.27485606606E+01  0.17770000000E+01 0. -1.
         15    1    1    2    0    0  0.24671676302E+01 -0.10933279270E+00 -0.73535944212E+00  0.31300722490E+01  0.17770000000E+01 0.  1.
</event>
<event>
 6    1  0.3691007E-002  0.4626218E+02  0.7546771E-02  0.1314892E+00
        -11   -1    0    0    0    0  0.00000000000E+00  0.00000000000E+00  0.45600000000E+02  0.45600000000E+02  0.00000000000E+00 0. -1.
         11   -1    0    0    0    0 -0.00000000000E+00 -0.00000000000E+00 -0.45600000000E+02  0.45600000000E+02  0.00000000000E+00 0.  1.
        -11    1    1    2    0    0 -0.34920947528E+00 -0.89491424698E+00  0.44927550805E+02  0.44937819708E+02  0.00000000000E+00 0. -1.
         11    1    1    2    0    0  0.68372533126E+00  0.75369240465E+00 -0.34146663472E+02  0.34161823120E+02  0.00000000000E+00 0.  1.
        -15    1    1    2    0    0  0.21004371909E+00 -0.64880954717E+00 -0.95444909682E+01  0.97324256500E+01  0.17770000000E+01 0.  1.
         15    1    1    2    0    0 -0.54455957508E+00  0.79003138951E+00 -0.12363963643E+01  0.23679315228E+01  0.17770000000E+01 0. -1.
</event>
<event>
 6    1  0.3691007E-002  0.4689047E+02  0.7546771E-02  0.1311903E+00
        -11   -1    0    0    0    0  0.00000000000E+00  0.00000000000E+00  0.45600000000E+02  0.45600000000E+02  0.00000000000E+00 0.  1.
         11   -1    0    0    0    0 -0.00000000000E+00 -0.00000000000E+00 -0.45600000000E+02  0.45600000000E+02  0.00000000000E+00 0.  1.
        -11    1    1    2    0    0 -0.24755455878E+00  0.13209130914E+01  0.44289146630E+02  0.44309531750E+02  0.00000000000E+00 0.  1.
         11    1    1    2    0    0 -0.81080396838E+00  0.31442228757E+00 -0.39889052621E+02  0.39898531094E+02  0.00000000000E+00 0.  1.
        -15    1    1    2    0    0  0.20277163444E+01 -0.64047413132E+00 -0.10714662016E+01  0.29711293319E+01  0.17770000000E+01 0.  1.
         15    1    1    2    0    0 -0.96935781720E+00 -0.99486124760E+00 -0.33286278076E+01  0.40208078245E+01  0.17770000000E+01 0. -1.
</event>
<event>
 6    1  0.3691007E-002  0.4656531E+02  0.7546771E-02  0.1313443E+00
        -11   -1    0    0    0    0  0.00000000000E+00  0.00000000000E+00  0.45600000000E+02  0.45600000000E+02  0.00000000000E+00 0.  1.
         11   -1    0    0    0    0 -0.00000000000E+00 -0.00000000000E+00 -0.45600000000E+02  0.45600000000E+02  0.00000000000E+00 0. -1.
        -11    1    1    2    0    0  0.27635106827E+01  0.28397926477E+01  0.44458449771E+02  0.44634685723E+02  0.00000000000E+00 0.  1.
         11    1    1    2    0    0 -0.32603305135E+00  0.61514335717E+00 -0.35003682838E+02  0.35010605695E+02  0.00000000000E+00 0. -1.
        -15    1    1    2    0    0 -0.32123535648E+01 -0.20817882240E+01 -0.53772187221E+01  0.68355883302E+01  0.17770000000E+01 0. -1.
         15    1    1    2    0    0  0.77487593347E+00 -0.13731477809E+01 -0.40775482104E+01  0.47191202516E+01  0.17770000000E+01 0.  1.
</event>
<event>
 6    1  0.3691007E-002  0.4846179E+02  0.7546771E-02  0.1304658E+00
        -11   -1    0    0    0    0  0.00000000000E+00  0.00000000000E+00  0.45600000000E+02  0.45600000000E+02  0.00000000000E+00 0. -1.
         11   -1    0    0    0    0 -0.00000000000E+00 -0.00000000000E+00 -0.45600000000E+02  0.45600000000E+02  0.00000000000E+00 0.  1.
        -11    1    1    2    0    0 -0.68748192839E+00  0.67736181565E+00  0.35018297513E+02  0.35031594471E+02  0.00000000000E+00 0. -1.
         11    1    1    2    0    0 -0.41989578885E+00  0.51462927898E+00 -0.42733052678E+02  0.42738214129E+02  0.00000000000E+00 0.  1.
        -15    1    1    2    0    0  0.18049856499E+01  0.16871932473E+01 -0.16405649045E+01  0.34574233840E+01  0.17770000000E+01 0.  1.
         15    1    1    2    0    0 -0.69760793270E+00 -0.28791843420E+01  0.93553200695E+01  0.99727680162E+01  0.17770000000E+01 0. -1.
</event>
<event>
 6    1  0.3691007E-002  0.4777938E+02  0.7546771E-02  0.1307765E+00
        -11   -1    0    0    0    0  0.00000000000E+00  0.00000000000E+00  0.45600000000E+02  0.45600000000E+02  0.00000000000E+00 0. -1.
         11   -1    0    0    0    0 -0.00000000000E+00 -0.00000000000E+00 -0.45600000000E+02  0.45600000000E+02  0.00000000000E+00 0.  1.
        -11    1    1    2    0    0 -0.58099459221E+00 -0.66507199157E+00  0.32134780208E+02  0.32146912363E+02  0.00000000000E+00 0. -1.
         11    1    1    2    0    0 -0.10150796522E+01  0.18665454173E+00 -0.43408350312E+02  0.43420618414E+02  0.00000000000E+00 0.  1.
        -15    1    1    2    0    0 -0.50618483400E+00  0.27207425705E+01 -0.50776186230E+00  0.33277942138E+01  0.17770000000E+01 0.  1.
         15    1    1    2    0    0  0.21022590784E+01 -0.22423251206E+01  0.11781331966E+02  0.12304675009E+02  0.17770000000E+01 0. -1.
</event>
<event>
 6    1  0.3691007E-002  0.4746319E+02  0.7546771E-02  0.1309225E+00
        -11   -1    0    0    0    0  0.00000000000E+00  0.00000000000E+00  0.45600000000E+02  0.45600000000E+02  0.00000000000E+00 0.  1.
         11   -1    0    0    0    0 -0.00000000000E+00 -0.00000000000E+00 -0.45600000000E+02  0.45600000000E+02  0.00000000000E+00 0. -1.
        -11    1    1    2    0    0 -0.11067416081E+01 -0.24759954263E+00  0.43722101034E+02  0.43736807170E+02  0.00000000000E+00 0.  1.
         11    1    1    2    0    0  0.94835001665E+00  0.54141764538E+00 -0.31967725589E+02  0.31986371787E+02  0.00000000000E+00 0. -1.
        -15    1    1    2    0    0  0.29271801342E+01  0.30964539424E+01 -0.29315891075E+01  0.54688531020E+01  0.17770000000E+01 0.  1.
         15    1    1    2    0    0 -0.27687885428E+01 -0.33902720452E+01 -0.88227863384E+01  0.10007967941E+02  0.17770000000E+01 0. -1.
</event>
<event>
 6    1  0.3691007E-002  0.4612331E+02  0.7546771E-02  0.1315560E+00
        -11   -1    0    0    0    0  0.00000000000E+00  0.00000000000E+00  0.45600000000E+02  0.45600000000E+02  0.00000000000E+00 0.  1.
         11   -1    0    0    0    0 -0.00000000000E+00 -0.00000000000E+00 -0.45600000000E+02  0.45600000000E+02  0.00000000000E+00 0.  1.
        -11    1    1    2    0    0 -0.42459405807E+00 -0.47462745559E+00  0.34227138507E+02  0.34233062406E+02  0.00000000000E+00 0.  1.
         11    1    1    2    0    0  0.11545570860E+01  0.37773021737E-01 -0.45061885356E+02  0.45076689549E+02  0.00000000000E+00 0.  1.
        -15    1    1    2    0    0 -0.42505672505E+00 -0.11311381301E+01  0.74031033792E+01  0.77086844099E+01  0.17770000000E+01 0. -1.
         15    1    1    2    0    0 -0.30490630291E+00  0.15679925640E+01  0.34316434697E+01  0.41815636355E+01  0.17770000000E+01 0.  1.
</event>
<event>
 6    1  0.3691007E-002  0.4704234E+02  0.7546771E-02  0.1311189E+00
        -11   -1    0    0    0    0  0.00000000000E+00  0.00000000000E+00  0.45600000000E+02  0.45600000000E+02  0.00000000000E+00 0.  1.
         11   -1    0    0    0    0 -0.00000000000E+00 -0.00000000000E+00 -0.45600000000E+02  0.45600000000E+02  0.00000000000E+00 0. -1.
        -11    1    1    2    0    0  0.20002121819E+01 -0.17745455538E+01  0.44076627250E+02  0.44157659929E+02  0.00000000000E+00 0.  1.
         11    1    1    2    0    0 -0.99617455648E+00  0.29124088069E+00 -0.39997877039E+02  0.40011340300E+02  0.00000000000E+00 0. -1.
        -15    1    1    2    0    0 -0.20383057303E+00 -0.13186081481E+01 -0.10088024714E+01  0.24404273759E+01  0.17770000000E+01 0. -1.
         15    1    1    2    0    0 -0.80020705243E+00  0.28019128211E+01 -0.30699477400E+01  0.45905723946E+01  0.17770000000E+01 0.  1.
</event>
<event>
 6    1  0.3691007E-002  0.4649098E+02  0.7546771E-02  0.1313798E+00
        -11   -1    0    0    0    0  0.00000000000E+00  0.00000000000E+00  0.45600000000E+02  0.45600000000E+02  0.00000000000E+00 0.  1.
         11   -1    0    0    0    0 -0.00000000000E+00 -0.00000000000E+00 -0.45600000000E+02  0.45600000000E+02  0.00000000000E+00 0.  1.
        -11    1    1    2    0    0  0.69604380484E-01  0.14126310463E+01  0.22419591834E+02  0.22464159660E+02  0.00000000000E+00 0.  1.
         11    1    1    2    0    0 -0.45591132908E+01 -0.18192929571E+00 -0.44475589772E+02  0.44709022555E+02  0.00000000000E+00 0.  1.
        -15    1    1    2    0    0  0.22410907536E+01  0.29681890805E+01  0.68611389417E+01  0.80040983727E+01  0.17770000000E+01 0.  1.
         15    1    1    2    0    0  0.22484181568E+01 -0.41988908311E+01  0.15194858997E+02  0.16022719412E+02  0.17770000000E+01 0. -1.
</event>
<event>
 6    1  0.3691007E-002  0.4594664E+02  0.7546771E-02  0.1316414E+00
        -11   -1    0    0    0    0  0.00000000000E+00  0.00000000000E+00  0.45600000000E+02  0.45600000000E+02  0.00000000000E+00 0.  1.
         11   -1    0    0    0    0 -0.00000000000E+00 -0.00000000000E+00 -0.45600000000E+02  0.45600000000E+02  0.00000000000E+00 0. -1.
        -11    1    1    2    0    0 -0.33575458912E+00  0.23518351056E+01  0.21505960035E+02  0.21636778331E+02  0.00000000000E+00 0.  1.
         11    1    1    2    0    0 -0.37252567553E+00 -0.76791915305E+00 -0.45245311069E+02  0.45253360637E+02  0.00000000000E+00 0. -1.
        -15    1    1    2    0    0 -0.10707729478E+01 -0.12768527586E+01  0.15487951785E+02  0.15678370042E+02  0.17770000000E+01 0.  1.
         15    1    1    2    0    0  0.17790532124E+01 -0.30706319392E+00  0.82513992493E+01  0.86314909899E+01  0.17770000000E+01 0. -1.
</event>
<event>
 6    1  0.3691007E-002  0.4650430E+02  0.7546771E-02  0.1313734E+00
        -11   -1    0    0    0    0  0.00000000000E+00  0.00000000000E+00  0.45600000000E+02  0.45600000000E+02  0.00000000000E+00 0.  1.
         11   -1    0    0    0    0 -0.00000000000E+00 -0.00000000000E+00 -0.45600000000E+02  0.45600000000E+02  0.00000000000E+00 0. -1.
        -11    1    1    2    0    0  0.89082039485E+01  0.27635872971E+01  0.43711689299E+02  0.44695696591E+02  0.00000000000E+00 0.  1.
         11    1    1    2    0    0 -0.22726832559E+00 -0.10826480315E+01 -0.11224491205E+02  0.11278873191E+02  0.00000000000E+00 0. -1.
        -15    1    1    2    0    0 -0.56627416278E+01 -0.51004531530E+01 -0.25646258826E+02  0.26813608222E+02  0.17770000000E+01 0. -1.
         15    1    1    2    0    0 -0.30181939951E+01  0.34195138874E+01 -0.68409392685E+01  0.84118219961E+01  0.17770000000E+01 0.  1.
</event>
<event>
 6    1  0.3691007E-002  0.4803243E+02  0.7546771E-02  0.1306606E+00
        -11   -1    0    0    0    0  0.00000000000E+00  0.00000000000E+00  0.45600000000E+02  0.45600000000E+02  0.00000000000E+00 0. -1.
         11   -1    0    0    0    0 -0.00000000000E+00 -0.00000000000E+00 -0.45600000000E+02  0.45600000000E+02  0.00000000000E+00 0.  1.
        -11    1    1    2    0    0  0.63216443889E+01 -0.50193625492E+01  0.30261950391E+02  0.31320006859E+02  0.00000000000E+00 0. -1.
         11    1    1    2    0    0 -0.12424306001E+01  0.61398064729E+00 -0.43145321455E+02  0.43167573125E+02  0.00000000000E+00 0.  1.
        -15    1    1    2    0    0  0.23894242110E+00 -0.12134019550E+01  0.53388424726E+01  0.57611115015E+01  0.17770000000E+01 0. -1.
         15    1    1    2    0    0 -0.53181562099E+01  0.56187838569E+01  0.75445285922E+01  0.10951308515E+02  0.17770000000E+01 0.  1.
</event>
<event>
 6    1  0.3691007E-002  0.4739842E+02  0.7546771E-02  0.1309526E+00
        -11   -1    0    0    0    0  0.00000000000E+00  0.00000000000E+00  0.45600000000E+02  0.45600000000E+02  0.00000000000E+00 0.  1.
         11   -1    0    0    0    0 -0.00000000000E+00 -0.00000000000E+00 -0.45600000000E+02  0.45600000000E+02  0.00000000000E+00 0. -1.
        -11    1    1    2    0    0  0.12133507310E+01  0.11121387398E+01  0.38247350499E+02  0.38282749285E+02  0.00000000000E+00 0.  1.
         11    1    1    2    0    0  0.12429491062E+00  0.15119252247E+01 -0.43775306487E+02  0.43801584733E+02  0.00000000000E+00 0. -1.
        -15    1    1    2    0    0 -0.24844923268E+01 -0.33140229715E+01  0.51761818465E+01  0.68633838510E+01  0.17770000000E+01 0.  1.
         15    1    1    2    0    0  0.11468466852E+01  0.68995900711E+00  0.35177414133E+00  0.22522821309E+01  0.17770000000E+01 0.  1.
</event>
<event>
 6    1  0.3691007E-002  0.4865353E+02  0.7546771E-02  0.1303796E+00
        -11   -1    0    0    0    0  0.00000000000E+00  0.00000000000E+00  0.45600000000E+02  0.45600000000E+02  0.00000000000E+00 0.  1.
         11   -1    0    0    0    0 -0.00000000000E+00 -0.00000000000E+00 -0.45600000000E+02  0.45600000000E+02  0.00000000000E+00 0. -1.
        -11    1    1    2    0    0  0.18824397497E+00 -0.82122192399E+00  0.42538131120E+02  0.42546473889E+02  0.00000000000E+00 0.  1.
         11    1    1    2    0    0 -0.10583396385E+01  0.33023979001E+00 -0.36861900437E+02  0.36878568911E+02  0.00000000000E+00 0. -1.
        -15    1    1    2    0    0  0.58943592193E+00 -0.37819702344E+01 -0.57569900307E+01  0.71380247109E+01  0.17770000000E+01 0.  1.
         15    1    1    2    0    0  0.28065974164E+00  0.42729523684E+01  0.80759348003E-01  0.46369324888E+01  0.17770000000E+01 0. -1.
</event>
<event>
 6    1  0.3691007E-002  0.4141843E+02  0.7546771E-02  0.1339936E+00
        -11   -1    0    0    0    0  0.00000000000E+00  0.00000000000E+00  0.45600000000E+02  0.45600000000E+02  0.00000000000E+00 0. -1.
         11   -1    0    0    0    0 -0.00000000000E+00 -0.00000000000E+00 -0.45600000000E+02  0.45600000000E+02  0.00000000000E+00 0.  1.
        -11    1    1    2    0    0  0.49446979964E+00  0.43835598198E+00  0.41757760599E+02  0.41762988717E+02  0.00000000000E+00 0. -1.
         11    1    1    2    0    0  0.26638929293E+01  0.28770751788E+01 -0.41016661289E+02  0.41203645353E+02  0.00000000000E+00 0.  1.
        -15    1    1    2    0    0 -0.22427749181E+01 -0.28607490921E+00  0.21521312743E+01  0.35918346578E+01  0.17770000000E+01 0. -1.
         15    1    1    2    0    0 -0.91558781081E+00 -0.30293562516E+01 -0.28932305842E+01  0.46415312723E+01  0.17770000000E+01 0. -1.
</event>
<event>
 6    1  0.3691007E-002  0.4802372E+02  0.7546771E-02  0.1306646E+00
        -11   -1    0    0    0    0  0.00000000000E+00  0.00000000000E+00  0.45600000000E+02  0.45600000000E+02  0.00000000000E+00 0. -1.
         11   -1    0    0    0    0 -0.00000000000E+00 -0.00000000000E+00 -0.45600000000E+02  0.45600000000E+02  0.00000000000E+00 0. -1.
        -11    1    1    2    0    0 -0.10698384945E+01 -0.32673723945E+00  0.43161787267E+02  0.43176280429E+02  0.00000000000E+00 0. -1.
         11    1    1    2    0    0 -0.81456846449E+00 -0.94240332397E+00 -0.37137715844E+02  0.37158600403E+02  0.00000000000E+00 0. -1.
        -15    1    1    2    0    0  0.54558330165E+00  0.33796907215E+01  0.26700000114E+00  0.38663921829E+01  0.17770000000E+01 0.  1.
         15    1    1    2    0    0  0.13388236573E+01 -0.21105501580E+01 -0.62910714235E+01  0.69987269850E+01  0.17770000000E+01 0. -1.
</event>
<event>
 6    1  0.3691007E-002  0.4660222E+02  0.7546771E-02  0.1313268E+00
        -11   -1    0    0    0    0  0.00000000000E+00  0.00000000000E+00  0.45600000000E+02  0.45600000000E+02  0.00000000000E+00 0.  1.
         11   -1    0    0    0    0 -0.00000000000E+00 -0.00000000000E+00 -0.45600000000E+02  0.45600000000E+02  0.00000000000E+00 0. -1.
        -11    1    1    2    0    0 -0.17129199822E+01 -0.33240078700E+00  0.36226864341E+02  0.36268861096E+02  0.00000000000E+00 0.  1.
         11    1    1    2    0    0  0.13612574349E+01 -0.19259040563E+01 -0.44535380877E+02  0.44597783332E+02  0.00000000000E+00 0. -1.
        -15    1    1    2    0    0  0.19027408170E+01 -0.95509559100E-01  0.23607622401E+01  0.35157463001E+01  0.17770000000E+01 0. -1.
         15    1    1    2    0    0 -0.15510782697E+01  0.23538144024E+01  0.59477542953E+01  0.68176092728E+01  0.17770000000E+01 0.  1.
</event>
<event>
 6    1  0.3691007E-002  0.4598982E+02  0.7546771E-02  0.1316205E+00
        -11   -1    0    0    0    0  0.00000000000E+00  0.00000000000E+00  0.45600000000E+02  0.45600000000E+02  0.00000000000E+00 0. -1.
         11   -1    0    0    0    0 -0.00000000000E+00 -0.00000000000E+00 -0.45600000000E+02  0.45600000000E+02  0.00000000000E+00 0.  1.
        -11    1    1    2    0    0 -0.72366856225E+00 -0.74556626743E-01  0.28512179985E+02  0.28521459682E+02  0.00000000000E+00 0. -1.
         11    1    1    2    0    0  0.24253337792E+01  0.23948575667E+01 -0.45081508427E+02  0.45210175722E+02  0.00000000000E+00 0.  1.
        -15    1    1    2    0    0 -0.23449700527E+01 -0.13106625679E+01  0.77537725142E+01  0.83961561513E+01  0.17770000000E+01 0. -1.
         15    1    1    2    0    0  0.64330483576E+00 -0.10096383720E+01  0.88155559282E+01  0.90722084454E+01  0.17770000000E+01 0.  1.
</event>
<event>
 6    1  0.3691007E-002  0.4675686E+02  0.7546771E-02  0.1312534E+00
        -11   -1    0    0    0    0  0.00000000000E+00  0.00000000000E+00  0.45600000000E+02  0.45600000000E+02  0.00000000000E+00 0.  1.
         11   -1    0    0    0    0 -0.00000000000E+00 -0.00000000000E+00 -0.45600000000E+02  0.45600000000E+02  0.00000000000E+00 0. -1.
        -11    1    1    2    0    0 -0.89396779720E+00 -0.72505630438E+00  0.44428232283E+02  0.44443140178E+02  0.00000000000E+00 0.  1.
         11    1    1    2    0    0 -0.21450029736E+00  0.15017385257E+01 -0.38310052063E+02  0.38340074570E+02  0.00000000000E+00 0. -1.
        -15    1    1    2    0    0 -0.14051437648E+01 -0.20241445839E+00 -0.41082134839E+01  0.46958010650E+01  0.17770000000E+01 0.  1.
         15    1    1    2    0    0  0.25136118594E+01 -0.57426776292E+00 -0.20099667361E+01  0.37209841875E+01  0.17770000000E+01 0.  1.
</event>
<event>
 6    1  0.3691007E-002  0.4679365E+02  0.7546771E-02  0.1312360E+00
        -11   -1    0    0    0    0  0.00000000000E+00  0.00000000000E+00  0.45600000000E+02  0.45600000000E+02  0.00000000000E+00 0. -1.
         11   -1    0    0    0    0 -0.00000000000E+00 -0.00000000000E+00 -0.45600000000E+02  0.45600000000E+02  0.00000000000E+00 0.  1.
        -11    1    1    2    0    0  0.13108766361E+01  0.18639247228E+01  0.24512706712E+02  0.24618395628E+02  0.00000000000E+00 0. -1.
         11    1    1    2    0    0 -0.10047962678E+01 -0.91669278339E+00 -0.44385511922E+02  0.44406346503E+02  0.00000000000E+00 0.  1.
        -15    1    1    2    0    0 -0.11267596195E+01 -0.11039327264E+01  0.17797794208E+00  0.23827840549E+01  0.17770000000E+01 0. -1.
         15    1    1    2    0    0  0.82067925119E+00  0.15670078698E+00  0.19694827268E+02  0.19792473814E+02  0.17770000000E+01 0. -1.
</event>
<event>
 6    1  0.3691007E-002  0.4663680E+02  0.7546771E-02  0.1313104E+00
        -11   -1    0    0    0    0  0.00000000000E+00  0.00000000000E+00  0.45600000000E+02  0.45600000000E+02  0.00000000000E+00 0.  1.
         11   -1    0    0    0    0 -0.00000000000E+00 -0.00000000000E+00 -0.45600000000E+02  0.45600000000E+02  0.00000000000E+00 0.  1.
        -11    1    1    2    0    0  0.14806519204E+01 -0.12002407756E+01  0.36276889102E+02  0.36326926528E+02  0.00000000000E+00 0.  1.
         11    1    1    2    0    0 -0.75748482151E+00 -0.62648089894E+00 -0.44552361598E+02  0.44563204390E+02  0.00000000000E+00 0.  1.
        -15    1    1    2    0    0  0.13642054068E+01  0.24066278987E+01  0.51719901078E+01  0.61286315691E+01  0.17770000000E+01 0. -1.
         15    1    1    2    0    0 -0.20873725057E+01 -0.57990622410E+00  0.31034823878E+01  0.41812375127E+01  0.17770000000E+01 0. -1.
</event>
<event>
 6    1  0.3691007E-002  0.4616931E+02  0.7546771E-02  0.1315339E+00
        -11   -1    0    0    0    0  0.00000000000E+00  0.00000000000E+00  0.45600000000E+02  0.45600000000E+02  0.00000000000E+00 0.  1.
         11   -1    0    0    0    0 -0.00000000000E+00 -0.00000000000E+00 -0.45600000000E+02  0.45600000000E+02  0.00000000000E+00 0. -1.
        -11    1    1    2    0    0 -0.74596093037E-02 -0.34991372754E+01  0.44894537064E+02  0.45030694815E+02  0.00000000000E+00 0.  1.
         11    1    1    2    0    0  0.12552265943E+01 -0.57608404727E+00 -0.31805760515E+02  0.31835732574E+02  0.00000000000E+00 0. -1.
        -15    1    1    2    0    0 -0.60936336743E+00  0.86384342830E+00 -0.55960957438E+01  0.59658667230E+01  0.17770000000E+01 0. -1.
         15    1    1    2    0    0 -0.63840361761E+00  0.32113778944E+01 -0.74926808059E+01  0.83677058874E+01  0.17770000000E+01 0. -1.
</event>
<event>
 6    1  0.3691007E-002  0.4864946E+02  0.7546771E-02  0.1303814E+00
        -11   -1    0    0    0    0  0.00000000000E+00  0.00000000000E+00  0.45600000000E+02  0.45600000000E+02  0.00000000000E+00 0. -1.
         11   -1    0    0    0    0 -0.00000000000E+00 -0.00000000000E+00 -0.45600000000E+02  0.45600000000E+02  0.00000000000E+00 0. -1.
        -11    1    1    2    0    0  0.49717528277E+00 -0.13943977564E+01  0.42524783083E+02  0.42550542942E+02  0.00000000000E+00 0. -1.
         11    1    1    2    0    0 -0.19545914539E-01  0.63113297302E+00 -0.41046110004E+02  0.41050966582E+02  0.00000000000E+00 0. -1.
        -15    1    1    2    0    0 -0.15288989933E+01 -0.51035234653E+00 -0.36332840830E+01  0.43539032921E+01  0.17770000000E+01 0.  1.
         15    1    1    2    0    0  0.10512696251E+01  0.12736171299E+01  0.21546110039E+01  0.32445871842E+01  0.17770000000E+01 0. -1.
</event>
<event>
 6    1  0.3691007E-002  0.4766698E+02  0.7546771E-02  0.1308283E+00
        -11   -1    0    0    0    0  0.00000000000E+00  0.00000000000E+00  0.45600000000E+02  0.45600000000E+02  0.00000000000E+00 0.  1.
         11   -1    0    0    0    0 -0.00000000000E+00 -0.00000000000E+00 -0.45600000000E+02  0.45600000000E+02  0.00000000000E+00 0. -1.
        -11    1    1    2    0    0 -0.15037141933E+01 -0.30480533744E+00  0.36249569047E+02  0.36282024734E+02  0.00000000000E+00 0.  1.
         11    1    1    2    0    0  0.13108946545E+01  0.51410925332E+01 -0.43208502265E+02  0.43533021320E+02  0.00000000000E+00 0. -1.
        -15    1    1    2    0    0 -0.20415769677E+01  0.98342191483E-01  0.43294508922E+01  0.51068171819E+01  0.17770000000E+01 0.  1.
         15    1    1    2    0    0  0.22343965065E+01 -0.49346293873E+01  0.26294823255E+01  0.62781367648E+01  0.17770000000E+01 0.  1.
</event>
<event>
 6    1  0.3691007E-002  0.4643802E+02  0.7546771E-02  0.1314050E+00
        -11   -1    0    0    0    0  0.00000000000E+00  0.00000000000E+00  0.45600000000E+02  0.45600000000E+02  0.00000000000E+00 0. -1.
         11   -1    0    0    0    0 -0.00000000000E+00 -0.00000000000E+00 -0.45600000000E+02  0.45600000000E+02  0.00000000000E+00 0.  1.
        -11    1    1    2    0    0 -0.63870430781E+01 -0.95217005137E+00  0.44293725705E+02  0.44761982574E+02  0.00000000000E+00 0. -1.
         11    1    1    2    0    0  0.23458640004E+01 -0.19438819378E+01 -0.17757041244E+02  0.18016499900E+02  0.00000000000E+00 0.  1.
        -15    1    1    2    0    0  0.20382510175E+01 -0.51434771983E+00 -0.17574534688E+01  0.32657912490E+01  0.17770000000E+01 0. -1.
         15    1    1    2    0    0  0.20029280602E+01  0.34103997090E+01 -0.24779230992E+02  0.25155726277E+02  0.17770000000E+01 0.  1.
</event>
<event>
 6    1  0.3691007E-002  0.4676437E+02  0.7546771E-02  0.1312499E+00
        -11   -1    0    0    0    0  0.00000000000E+00  0.00000000000E+00  0.45600000000E+02  0.45600000000E+02  0.00000000000E+00 0. -1.
         11   -1    0    0    0    0 -0.00000000000E+00 -0.00000000000E+00 -0.45600000000E+02  0.45600000000E+02  0.00000000000E+00 0.  1.
        -11    1    1    2    0    0 -0.63588041223E+00 -0.14424712443E+00  0.92859587390E+01  0.93088227415E+01  0.00000000000E+00 0. -1.
         11    1    1    2    0    0  0.13086108948E+01  0.92356086437E+00 -0.44406754559E+02  0.44435630722E+02  0.00000000000E+00 0.  1.
        -15    1    1    2    0    0  0.19587354348E+01 -0.52212847053E+00  0.33957180789E+02  0.34064015013E+02  0.17770000000E+01 0. -1.
         15    1    1    2    0    0 -0.26314659173E+01 -0.25718526942E+00  0.11636150312E+01  0.33915315239E+01  0.17770000000E+01 0. -1.
</event>
<event>
 6    1  0.3691007E-002  0.4627718E+02  0.7546771E-02  0.1314820E+00
        -11   -1    0    0    0    0  0.00000000000E+00  0.00000000000E+00  0.45600000000E+02  0.45600000000E+02  0.00000000000E+00 0.  1.
         11   -1    0    0    0    0 -0.00000000000E+00 -0.00000000000E+00 -0.45600000000E+02  0.45600000000E+02  0.00000000000E+00 0. -1.
        -11    1    1    2    0    0 -0.16273330965E+01 -0.21586122079E+01  0.35931207171E+02  0.36032755494E+02  0.00000000000E+00 0.  1.
         11    1    1    2    0    0 -0.67314580383E+00 -0.17565326981E-01 -0.44917773266E+02  0.44922820358E+02  0.00000000000E+00 0. -1.
        -15    1    1    2    0    0  0.88522892856E+00  0.12349047767E+01  0.32552506113E+01  0.40078679627E+01  0.17770000000E+01 0. -1.
         15    1    1    2    0    0  0.14152499717E+01  0.94127275819E+00  0.57313154828E+01  0.62365561852E+01  0.17770000000E+01 0.  1.
</event>
<event>
 6    1  0.3691007E-002  0.4607393E+02  0.7546771E-02  0.1315799E+00
        -11   -1    0    0    0    0  0.00000000000E+00  0.00000000000E+00  0.45600000000E+02  0.45600000000E+02  0.00000000000E+00 0. -1.
         11   -1    0    0    0    0 -0.00000000000E+00 -0.00000000000E+00 -0.45600000000E+02  0.45600000000E+02  0.00000000000E+00 0.  1.
        -11    1    1    2    0    0 -0.10381226540E+01  0.36681093207E+00  0.45112633940E+02  0.45126067743E+02  0.00000000000E+00 0. -1.
         11    1    1    2    0    0 -0.15136777191E-02 -0.80658023801E+00 -0.28887981184E+02  0.28899239279E+02  0.00000000000E+00 0.  1.
        -15    1    1    2    0    0  0.50073472277E+00  0.11787664272E+01 -0.14055694520E+02  0.14225347201E+02  0.17770000000E+01 0. -1.
         15    1    1    2    0    0  0.53890160899E+00 -0.73899712130E+00 -0.21689582361E+01  0.29493457782E+01  0.17770000000E+01 0.  1.
</event>
<event>
 6    1  0.3691007E-002  0.4238894E+02  0.7546771E-02  0.1334610E+00
        -11   -1    0    0    0    0  0.00000000000E+00  0.00000000000E+00  0.45600000000E+02  0.45600000000E+02  0.00000000000E+00 0. -1.
         11   -1    0    0    0    0 -0.00000000000E+00 -0.00000000000E+00 -0.45600000000E+02  0.45600000000E+02  0.00000000000E+00 0. -1.
        -11    1    1    2    0    0 -0.26742300232E+01 -0.90863914234E+00  0.42778311512E+02  0.42871448158E+02  0.00000000000E+00 0. -1.
         11    1    1    2    0    0  0.35951837326E+00  0.57010963500E+00 -0.41937454473E+02  0.41942870265E+02  0.00000000000E+00 0. -1.
        -15    1    1    2    0    0 -0.23689435351E+00 -0.17624282890E+01  0.10326231659E+00  0.25160811820E+01  0.17770000000E+01 0.  1.
         15    1    1    2    0    0  0.25516060035E+01  0.21009577963E+01 -0.94411935598E+00  0.38696003950E+01  0.17770000000E+01 0.  1.
</event>
<event>
 6    1  0.3691007E-002  0.4774081E+02  0.7546771E-02  0.1307943E+00
        -11   -1    0    0    0    0  0.00000000000E+00  0.00000000000E+00  0.45600000000E+02  0.45600000000E+02  0.00000000000E+00 0. -1.
         11   -1    0    0    0    0 -0.00000000000E+00 -0.00000000000E+00 -0.45600000000E+02  0.45600000000E+02  0.00000000000E+00 0.  1.
        -11    1    1    2    0    0 -0.77553580378E-01  0.57840082118E+00  0.34654268377E+02  0.34659181739E+02  0.00000000000E+00 0. -1.
         11    1    1    2    0    0 -0.26686425676E+00 -0.95281306400E+00 -0.43447924541E+02  0.43459190239E+02  0.00000000000E+00 0.  1.
        -15    1    1    2    0    0  0.10658389303E+00  0.29204246911E+01 -0.33489070684E+00  0.34365857022E+01  0.17770000000E+01 0.  1.
         15    1    1    2    0    0  0.23783394411E+00 -0.25460124483E+01  0.91285468710E+01  0.96450423196E+01  0.17770000000E+01 0.  1.
</event>
<event>
 6    1  0.3691007E-002  0.4692675E+02  0.7546771E-02  0.1311732E+00
        -11   -1    0    0    0    0  0.00000000000E+00  0.00000000000E+00  0.45600000000E+02  0.45600000000E+02  0.00000000000E+00 0. -1.
         11   -1    0    0    0    0 -0.00000000000E+00 -0.00000000000E+00 -0.45600000000E+02  0.45600000000E+02  0.00000000000E+00 0. -1.
        -11    1    1    2    0    0 -0.41772664747E+00 -0.34500879726E+00  0.39951681955E+02  0.39955355306E+02  0.00000000000E+00 0. -1.
         11    1    1    2    0    0 -0.20889672186E+00 -0.10401583238E+01 -0.44260537932E+02  0.44273251351E+02  0.00000000000E+00 0. -1.
        -15    1    1    2    0    0  0.19230243890E+01  0.50741553199E+00  0.36361421863E+01  0.45094070921E+01  0.17770000000E+01 0. -1.
         15    1    1    2    0    0 -0.12964010197E+01  0.87775158905E+00  0.67271379046E+00  0.24619862509E+01  0.17770000000E+01 0.  1.
</event>
<event>
 6    1  0.3691007E-002  0.4904097E+02  0.7546771E-02  0.1302067E+00
        -11   -1    0    0    0    0  0.00000000000E+00  0.00000000000E+00  0.45600000000E+02  0.45600000000E+02  0.00000000000E+00 0. -1.
         11   -1    0    0    0    0 -0.00000000000E+00 -0.00000000000E+00 -0.45600000000E+02  0.45600000000E+02  0.00000000000E+00 0.  1.
        -11    1    1    2    0    0 -0.20565600537E+01 -0.79044550471E-01  0.36933510723E+02  0.36990808340E+02  0.00000000000E+00 0. -1.
         11    1    1    2    0    0  0.15461845371E+01 -0.26906871849E+01 -0.42044659129E+02  0.42159030414E+02  0.00000000000E+00 0.  1.
        -15    1    1    2    0    0  0.24559237398E+01  0.24905120349E+01 -0.20414059129E+01  0.44225873324E+01  0.17770000000E+01 0. -1.
         15    1    1    2    0    0 -0.19455482232E+01  0.27921970052E+00  0.71525543191E+01  0.76275739142E+01  0.17770000000E+01 0.  1.
</event>
<event>
 6    1  0.3691007E-002  0.4824973E+02  0.7546771E-02  0.1305617E+00
        -11   -1    0    0    0    0  0.00000000000E+00  0.00000000000E+00  0.45600000000E+02  0.45600000000E+02  0.00000000000E+00 0. -1.
         11   -1    0    0    0    0 -0.00000000000E+00 -0.00000000000E+00 -0.45600000000E+02  0.45600000000E+02  0.00000000000E+00 0.  1.
        -11    1    1    2    0    0 -0.10427911828E+01  0.24139891891E+01  0.40858936380E+02  0.40943466382E+02  0.00000000000E+00 0. -1.
         11    1    1    2    0    0  0.84339822473E+00 -0.22800395616E+01 -0.42881412095E+02  0.42950266638E+02  0.00000000000E+00 0.  1.
        -15    1    1    2    0    0 -0.75965230953E-03 -0.61615931340E+00 -0.20805100556E+01  0.28046218940E+01  0.17770000000E+01 0. -1.
         15    1    1    2    0    0  0.20015261043E+00  0.48220968599E+00  0.41029857712E+01  0.45016450868E+01  0.17770000000E+01 0.  1.
</event>
<event>
 6    1  0.3691007E-002  0.4589823E+02  0.7546771E-02  0.1316649E+00
        -11   -1    0    0    0    0  0.00000000000E+00  0.00000000000E+00  0.45600000000E+02  0.45600000000E+02  0.00000000000E+00 0. -1.
         11   -1    0    0    0    0 -0.00000000000E+00 -0.00000000000E+00 -0.45600000000E+02  0.45600000000E+02  0.00000000000E+00 0.  1.
        -11    1    1    2    0    0 -0.66424391125E+00  0.90637207341E+00  0.15339772305E+02  0.15380875940E+02  0.00000000000E+00 0. -1.
         11    1    1    2    0    0 -0.65843646479E-01  0.64264029472E+00 -0.45297161756E+02  0.45301768012E+02  0.00000000000E+00 0.  1.
        -15    1    1    2    0    0 -0.32320041010E+00  0.13008357756E+01  0.14049742011E+02  0.14224964387E+02  0.17770000000E+01 0.  1.
         15    1    1    2    0    0  0.10532879678E+01 -0.28498481438E+01  0.15907647440E+02  0.16292391661E+02  0.17770000000E+01 0. -1.
</event>
<event>
 6    1  0.3691007E-002  0.4597263E+02  0.7546771E-02  0.1316288E+00
        -11   -1    0    0    0    0  0.00000000000E+00  0.00000000000E+00  0.45600000000E+02  0.45600000000E+02  0.00000000000E+00 0. -1.
         11   -1    0    0    0    0 -0.00000000000E+00 -0.00000000000E+00 -0.45600000000E+02  0.45600000000E+02  0.00000000000E+00 0.  1.
        -11    1    1    2    0    0 -0.98284577070E+00  0.69057072935E-01  0.45216633274E+02  0.45227366486E+02  0.00000000000E+00 0. -1.
         11    1    1    2    0    0  0.47185370389E+00  0.48275623376E+00 -0.27762656944E+02  0.27770862790E+02  0.00000000000E+00 0.  1.
        -15    1    1    2    0    0 -0.44292325203E+00 -0.13618825760E+01 -0.42872839248E+01  0.48568958821E+01  0.17770000000E+01 0.  1.
         15    1    1    2    0    0  0.95391531883E+00  0.81006926933E+00 -0.13166692405E+02  0.13344874842E+02  0.17770000000E+01 0. -1.
</event>
<event>
 6    1  0.3691007E-002  0.4675354E+02  0.7546771E-02  0.1312550E+00
        -11   -1    0    0    0    0  0.00000000000E+00  0.00000000000E+00  0.45600000000E+02  0.45600000000E+02  0.00000000000E+00 0. -1.
         11   -1    0    0    0    0 -0.00000000000E+00 -0.00000000000E+00 -0.45600000000E+02  0.45600000000E+02  0.00000000000E+00 0.  1.
        -11    1    1    2    0    0 -0.52447595671E+00  0.62007648779E+00  0.28905436965E+02  0.28916843812E+02  0.00000000000E+00 0. -1.
         11    1    1    2    0    0 -0.23014903468E+01 -0.64952946077E+00 -0.44382076599E+02  0.44446456209E+02  0.00000000000E+00 0.  1.
        -15    1    1    2    0    0 -0.20191650955E+01  0.12614120029E+01  0.27495620631E+01  0.40479634957E+01  0.17770000000E+01 0.  1.
         15    1    1    2    0    0  0.48451313990E+01 -0.12319590299E+01  0.12727077570E+02  0.13788736483E+02  0.17770000000E+01 0. -1.
</event>
<event>
 6    1  0.3691007E-002  0.4202786E+02  0.7546771E-02  0.1336572E+00
        -11   -1    0    0    0    0  0.00000000000E+00  0.00000000000E+00  0.45600000000E+02  0.45600000000E+02  0.00000000000E+00 0.  1.
         11   -1    0    0    0    0 -0.00000000000E+00 -0.00000000000E+00 -0.45600000000E+02  0.45600000000E+02  0.00000000000E+00 0.  1.
        -11    1    1    2    0    0  0.28403609554E+00  0.57059664003E+00  0.42000824214E+02  0.42005660234E+02  0.00000000000E+00 0.  1.
         11    1    1    2    0    0  0.22553254753E+01  0.13685895311E+01 -0.42028048434E+02  0.42110763297E+02  0.00000000000E+00 0.  1.
        -15    1    1    2    0    0 -0.13438400588E+00 -0.11984338571E+01 -0.23565797919E+01  0.31883381387E+01  0.17770000000E+01 0.  1.
         15    1    1    2    0    0 -0.24049775649E+01 -0.74075231405E+00  0.23838040121E+01  0.38952383299E+01  0.17770000000E+01 0.  1.
</event>
<event>
 6    1  0.3691007E-002  0.4840853E+02  0.7546771E-02  0.1304898E+00
        -11   -1    0    0    0    0  0.00000000000E+00  0.00000000000E+00  0.45600000000E+02  0.45600000000E+02  0.00000000000E+00 0.  1.
         11   -1    0    0    0    0 -0.00000000000E+00 -0.00000000000E+00 -0.45600000000E+02  0.45600000000E+02  0.00000000000E+00 0. -1.
        -11    1    1    2    0    0 -0.74758667542E+00 -0.13908845145E+00  0.38469347543E+02  0.38476862292E+02  0.00000000000E+00 0.  1.
         11    1    1    2    0    0  0.29853851475E+00 -0.30997826835E+01 -0.42678009166E+02  0.42791473968E+02  0.00000000000E+00 0. -1.
        -15    1    1    2    0    0 -0.12034770638E+01  0.42506355418E+01  0.52644505648E+01  0.70984807037E+01  0.17770000000E+01 0. -1.
         15    1    1    2    0    0  0.16525252245E+01 -0.10117644068E+01 -0.10557889414E+01  0.28331830370E+01  0.17770000000E+01 0.  1.
</event>
<event>
 6    1  0.3691007E-002  0.4781606E+02  0.7546771E-02  0.1307597E+00
        -11   -1    0    0    0    0  0.00000000000E+00  0.00000000000E+00  0.45600000000E+02  0.45600000000E+02  0.00000000000E+00 0. -1.
         11   -1    0    0    0    0 -0.00000000000E+00 -0.00000000000E+00 -0.45600000000E+02  0.45600000000E+02  0.00000000000E+00 0.  1.
        -11    1    1    2    0    0 -0.13404848035E+01 -0.30580987476E+01  0.43255263320E+02  0.43383944869E+02  0.00000000000E+00 0. -1.
         11    1    1    2    0    0 -0.13535592132E+01 -0.57833469907E+00 -0.37485465494E+02  0.37514353478E+02  0.00000000000E+00 0.  1.
        -15    1    1    2    0    0  0.30223220808E+00  0.45596195343E+00 -0.56432642903E+01  0.59416669766E+01  0.17770000000E+01 0. -1.
         15    1    1    2    0    0  0.23918118086E+01  0.31804714932E+01 -0.12653353592E+00  0.43600346768E+01  0.17770000000E+01 0. -1.
</event>
<event>
 6    1  0.4117281E-002  0.5068057E+02  0.7546771E-02  0.1294948E+00
        -11   -1    0    0    0    0  0.00000000000E+00  0.00000000000E+00  0.45600000000E+02  0.45600000000E+02  0.00000000000E+00 0.  1.
         11   -1    0    0    0    0 -0.00000000000E+00 -0.00000000000E+00 -0.45600000000E+02  0.45600000000E+02  0.00000000000E+00 0.  1.
        -11    1    1    2    0    0 -0.59333411327E+01  0.25189220957E+01  0.40003433208E+02  0.40519429585E+02  0.00000000000E+00 0.  1.
         11    1    1    2    0    0  0.73399586487E+01 -0.67953950759E+01 -0.33422305890E+02  0.34887002138E+02  0.00000000000E+00 0.  1.
        -15    1    1    2    0    0  0.47344636687E+01 -0.57602552806E+00  0.46842528113E+00  0.51111743155E+01  0.17770000000E+01 0.  1.
         15    1    1    2    0    0 -0.61410811848E+01  0.48524985082E+01 -0.70495525990E+01  0.10682393961E+02  0.17770000000E+01 0.  1.
</event>
<event>
 6    1  0.3691007E-002  0.4635248E+02  0.7546771E-02  0.1314459E+00
        -11   -1    0    0    0    0  0.00000000000E+00  0.00000000000E+00  0.45600000000E+02  0.45600000000E+02  0.00000000000E+00 0. -1.
         11   -1    0    0    0    0 -0.00000000000E+00 -0.00000000000E+00 -0.45600000000E+02  0.45600000000E+02  0.00000000000E+00 0. -1.
        -11    1    1    2    0    0  0.56486877154E+00 -0.19584080221E+01  0.28596450119E+02  0.28668997159E+02  0.00000000000E+00 0. -1.
         11    1    1    2    0    0 -0.54556050424E+00 -0.82866879340E+00 -0.44836545014E+02  0.44847520523E+02  0.00000000000E+00 0. -1.
        -15    1    1    2    0    0  0.93591507530E+00  0.22132263970E+00  0.12733913484E+02  0.12893223117E+02  0.17770000000E+01 0. -1.
         15    1    1    2    0    0 -0.95522334261E+00  0.25657541758E+01  0.35061814112E+01  0.47902592011E+01  0.17770000000E+01 0.  1.
</event>
<event>
 6    1  0.3691007E-002  0.4897900E+02  0.7546771E-02  0.1302342E+00
        -11   -1    0    0    0    0  0.00000000000E+00  0.00000000000E+00  0.45600000000E+02  0.45600000000E+02  0.00000000000E+00 0. -1.
         11   -1    0    0    0    0 -0.00000000000E+00 -0.00000000000E+00 -0.45600000000E+02  0.45600000000E+02  0.00000000000E+00 0.  1.
        -11    1    1    2    0    0  0.52076797023E+00  0.58465675833E+00  0.29856631576E+02  0.29866895919E+02  0.00000000000E+00 0. -1.
         11    1    1    2    0    0  0.69882712301E+00 -0.30714780104E+01 -0.42103326873E+02  0.42220995610E+02  0.00000000000E+00 0.  1.
        -15    1    1    2    0    0  0.43014656464E+01  0.39399939239E+01  0.11590819533E+02  0.13096983824E+02  0.17770000000E+01 0. -1.
         15    1    1    2    0    0 -0.55210607397E+01 -0.14531726719E+01  0.65587576362E+00  0.60151246473E+01  0.17770000000E+01 0.  1.
</event>
<event>
 6    1  0.3691007E-002  0.4603659E+02  0.7546771E-02  0.1315979E+00
        -11   -1    0    0    0    0  0.00000000000E+00  0.00000000000E+00  0.45600000000E+02  0.45600000000E+02  0.00000000000E+00 0.  1.
         11   -1    0    0    0    0 -0.00000000000E+00 -0.00000000000E+00 -0.45600000000E+02  0.45600000000E+02  0.00000000000E+00 0.  1.
        -11    1    1    2    0    0 -0.49053402792E+00  0.28188796499E+00  0.18519922675E+02  0.18528562285E+02  0.00000000000E+00 0.  1.
         11    1    1    2    0    0 -0.80210817557E+00  0.84073806640E+00 -0.45148463416E+02  0.45163414030E+02  0.00000000000E+00 0.  1.
        -15    1    1    2    0    0 -0.99858993646E+00 -0.11657351776E+01  0.21405882760E+02  0.21534290471E+02  0.17770000000E+01 0.  1.
         15    1    1    2    0    0  0.22912321400E+01  0.43109146225E-01  0.52226579817E+01  0.59737332140E+01  0.17770000000E+01 0. -1.
</event>
<event>
 6    1  0.3691007E-002  0.4945961E+02  0.7546771E-02  0.1300219E+00
        -11   -1    0    0    0    0  0.00000000000E+00  0.00000000000E+00  0.45600000000E+02  0.45600000000E+02  0.00000000000E+00 0. -1.
         11   -1    0    0    0    0 -0.00000000000E+00 -0.00000000000E+00 -0.45600000000E+02  0.45600000000E+02  0.00000000000E+00 0.  1.
        -11    1    1    2    0    0 -0.51353463531E+00  0.47973849223E+00  0.41734470371E+02  0.41740386725E+02  0.00000000000E+00 0. -1.
         11    1    1    2    0    0  0.13417333154E+01 -0.31125580972E+01 -0.29930656208E+02  0.30121959551E+02  0.00000000000E+00 0.  1.
        -15    1    1    2    0    0  0.34573497248E+01 -0.15731836709E+01 -0.12358893561E+02  0.13050982838E+02  0.17770000000E+01 0.  1.
         15    1    1    2    0    0 -0.42855484049E+01  0.42060032759E+01  0.55507939757E+00  0.62866708857E+01  0.17770000000E+01 0. -1.
</event>
<event>
 6    1  0.3691007E-002  0.4832791E+02  0.7546771E-02  0.1305263E+00
        -11   -1    0    0    0    0  0.00000000000E+00  0.00000000000E+00  0.45600000000E+02  0.45600000000E+02  0.00000000000E+00 0.  1.
         11   -1    0    0    0    0 -0.00000000000E+00 -0.00000000000E+00 -0.45600000000E+02  0.45600000000E+02  0.00000000000E+00 0. -1.
        -11    1    1    2    0    0 -0.97838144392E+00 -0.67383431071E+01  0.42327924306E+02  0.42872085022E+02  0.00000000000E+00 0.  1.
         11    1    1    2    0    0 -0.11641353698E+01  0.38034018242E+00 -0.29611145829E+02  0.29636461110E+02  0.00000000000E+00 0. -1.
        -15    1    1    2    0    0  0.11706177799E+01  0.47471753641E+01  0.49762928624E+00  0.52260294518E+01  0.17770000000E+01 0.  1.
         15    1    1    2    0    0  0.97189903383E+00  0.16108275606E+01 -0.13214407764E+02  0.13465424416E+02  0.17770000000E+01 0. -1.
</event>
<event>
 6    1  0.3691007E-002  0.4776325E+02  0.7546771E-02  0.1307839E+00
        -11   -1    0    0    0    0  0.00000000000E+00  0.00000000000E+00  0.45600000000E+02  0.45600000000E+02  0.00000000000E+00 0.  1.
         11   -1    0    0    0    0 -0.00000000000E+00 -0.00000000000E+00 -0.45600000000E+02  0.45600000000E+02  0.00000000000E+00 0. -1.
        -11    1    1    2    0    0  0.52669986922E+00  0.67005091732E+00  0.43428391212E+02  0.43436753380E+02  0.00000000000E+00 0.  1.
         11    1    1    2    0    0 -0.30982004549E+01  0.30351122347E+01 -0.36065977206E+02  0.36325823654E+02  0.00000000000E+00 0. -1.
        -15    1    1    2    0    0  0.17541029421E+01 -0.13797267323E+01 -0.78569045345E+01  0.83587798662E+01  0.17770000000E+01 0.  1.
         15    1    1    2    0    0  0.81739764363E+00 -0.23254364198E+01  0.49449052846E+00  0.30786430993E+01  0.17770000000E+01 0. -1.
</event>
<event>
 6    1  0.3691007E-002  0.4651017E+02  0.7546771E-02  0.1313706E+00
        -11   -1    0    0    0    0  0.00000000000E+00  0.00000000000E+00  0.45600000000E+02  0.45600000000E+02  0.00000000000E+00 0.  1.
         11   -1    0    0    0    0 -0.00000000000E+00 -0.00000000000E+00 -0.45600000000E+02  0.45600000000E+02  0.00000000000E+00 0. -1.
        -11    1    1    2    0    0 -0.15459733197E+01 -0.35038300853E+00  0.44661709339E+02  0.44689831985E+02  0.00000000000E+00 0.  1.
         11    1    1    2    0    0  0.51347497748E+00 -0.25600357590E+01 -0.22157037168E+02  0.22310350416E+02  0.00000000000E+00 0. -1.
        -15    1    1    2    0    0  0.11909761099E+00 -0.77051220339E+00 -0.80701487112E+00  0.21016363384E+01  0.17770000000E+01 0.  1.
         15    1    1    2    0    0  0.91340073126E+00  0.36809309709E+01 -0.21697657300E+02  0.22098181260E+02  0.17770000000E+01 0. -1.
</event>
<event>
 6    1  0.3691007E-002  0.4642522E+02  0.7546771E-02  0.1314111E+00
        -11   -1    0    0    0    0  0.00000000000E+00  0.00000000000E+00  0.45600000000E+02  0.45600000000E+02  0.00000000000E+00 0. -1.
         11   -1    0    0    0    0 -0.00000000000E+00 -0.00000000000E+00 -0.45600000000E+02  0.45600000000E+02  0.00000000000E+00 0.  1.
        -11    1    1    2    0    0 -0.44045837781E-02 -0.15127230296E+01  0.44749221933E+02  0.44774783238E+02  0.00000000000E+00 0. -1.
         11    1    1    2    0    0  0.84379393450E-01  0.10380860715E+01 -0.38778922280E+02  0.38792905998E+02  0.00000000000E+00 0.  1.
        -15    1    1    2    0    0  0.62057911266E+00 -0.11710296917E+01 -0.24756706663E+01  0.33231164924E+01  0.17770000000E+01 0.  1.
         15    1    1    2    0    0 -0.70055392234E+00  0.16456666498E+01 -0.34946289865E+01  0.43091942720E+01  0.17770000000E+01 0.  1.
</event>
<event>
 6    1  0.3691007E-002  0.4616629E+02  0.7546771E-02  0.1315353E+00
        -11   -1    0    0    0    0  0.00000000000E+00  0.00000000000E+00  0.45600000000E+02  0.45600000000E+02  0.00000000000E+00 0.  1.
         11   -1    0    0    0    0 -0.00000000000E+00 -0.00000000000E+00 -0.45600000000E+02  0.45600000000E+02  0.00000000000E+00 0. -1.
        -11    1    1    2    0    0 -0.65893229303E+00  0.11102517897E+01  0.22629220309E+02  0.22666019999E+02  0.00000000000E+00 0.  1.
         11    1    1    2    0    0 -0.32116777740E+01 -0.15590379309E+01 -0.44891976477E+02  0.45033709878E+02  0.00000000000E+00 0. -1.
        -15    1    1    2    0    0  0.29854156841E+01 -0.13419098490E+01  0.18578692799E+02  0.18948324041E+02  0.17770000000E+01 0. -1.
         15    1    1    2    0    0  0.88519438292E+00  0.17906959902E+01  0.36840633683E+01  0.45519460813E+01  0.17770000000E+01 0.  1.
</event>
<event>
 6    1  0.3691007E-002  0.4757860E+02  0.7546771E-02  0.1308691E+00
        -11   -1    0    0    0    0  0.00000000000E+00  0.00000000000E+00  0.45600000000E+02  0.45600000000E+02  0.00000000000E+00 0. -1.
         11   -1    0    0    0    0 -0.00000000000E+00 -0.00000000000E+00 -0.45600000000E+02  0.45600000000E+02  0.00000000000E+00 0. -1.
        -11    1    1    2    0    0 -0.58172654780E+01  0.51013219355E+01  0.42929743740E+02  0.43621404846E+02  0.00000000000E+00 0. -1.
         11    1    1    2    0    0 -0.68534159709E+00  0.17079048736E+01 -0.12985099333E+02  0.13114855579E+02  0.00000000000E+00 0. -1.
        -15    1    1    2    0    0  0.20153419105E+01 -0.37122678265E+01 -0.28053694854E+02  0.28425517750E+02  0.17770000000E+01 0. -1.
         15    1    1    2    0    0  0.44872651646E+01 -0.30969589826E+01 -0.18909495536E+01  0.60382218253E+01  0.17770000000E+01 0.  1.
</event>
<event>
 6    1  0.3691007E-002  0.4617944E+02  0.7546771E-02  0.1315290E+00
        -11   -1    0    0    0    0  0.00000000000E+00  0.00000000000E+00  0.45600000000E+02  0.45600000000E+02  0.00000000000E+00 0.  1.
         11   -1    0    0    0    0 -0.00000000000E+00 -0.00000000000E+00 -0.45600000000E+02  0.45600000000E+02  0.00000000000E+00 0.  1.
        -11    1    1    2    0    0  0.11952684441E+01 -0.32229681224E-01  0.33750710086E+02  0.33771883820E+02  0.00000000000E+00 0.  1.
         11    1    1    2    0    0  0.12159847036E+01 -0.45913849013E+00 -0.45001794121E+02  0.45020560870E+02  0.00000000000E+00 0.  1.
        -15    1    1    2    0    0 -0.22114358173E+01 -0.67771318082E+00  0.48516770704E+01  0.56609401096E+01  0.17770000000E+01 0. -1.
         15    1    1    2    0    0 -0.19981733047E+00  0.11690813522E+01  0.63994069642E+01  0.67466152008E+01  0.17770000000E+01 0.  1.
</event>
<event>
 6    1  0.3691007E-002  0.4753628E+02  0.7546771E-02  0.1308886E+00
        -11   -1    0    0    0    0  0.00000000000E+00  0.00000000000E+00  0.45600000000E+02  0.45600000000E+02  0.00000000000E+00 0. -1.
         11   -1    0    0    0    0 -0.00000000000E+00 -0.00000000000E+00 -0.45600000000E+02  0.45600000000E+02  0.00000000000E+00 0.  1.
        -11    1    1    2    0    0  0.71493800514E+00 -0.15954481540E+01  0.43628699846E+02  0.43663715387E+02  0.00000000000E+00 0. -1.
         11    1    1    2    0    0 -0.26932039778E+01 -0.65039785358E+00 -0.40869525100E+02  0.40963330515E+02  0.00000000000E+00 0.  1.
        -15    1    1    2    0    0 -0.70294936101E+00  0.11407645711E+01 -0.21939373502E+01  0.31251514695E+01  0.17770000000E+01 0.  1.
         15    1    1    2    0    0  0.26812153337E+01  0.11050814364E+01 -0.56523739642E+00  0.34478026279E+01  0.17770000000E+01 0. -1.
</event>
<event>
 6    1  0.3691007E-002  0.4297159E+02  0.7546771E-02  0.1331492E+00
        -11   -1    0    0    0    0  0.00000000000E+00  0.00000000000E+00  0.45600000000E+02  0.45600000000E+02  0.00000000000E+00 0. -1.
         11   -1    0    0    0    0 -0.00000000000E+00 -0.00000000000E+00 -0.45600000000E+02  0.45600000000E+02  0.00000000000E+00 0. -1.
        -11    1    1    2    0    0  0.59299343867E+00  0.23237669213E+00  0.62419519868E+01  0.62743609037E+01  0.00000000000E+00 0. -1.
         11    1    1    2    0    0  0.95367321509E+00  0.38428527071E+00 -0.44887641369E+02  0.44899415535E+02  0.00000000000E+00 0. -1.
        -15    1    1    2    0    0 -0.39292672400E+00 -0.50445369511E+01  0.23534294027E+02  0.24137573797E+02  0.17770000000E+01 0.  1.
         15    1    1    2    0    0 -0.11537399298E+01  0.44278749883E+01  0.15111395355E+02  0.15888649764E+02  0.17770000000E+01 0. -1.
</event>
<event>
 6    1  0.3691007E-002  0.4660896E+02  0.7546771E-02  0.1313236E+00
        -11   -1    0    0    0    0  0.00000000000E+00  0.00000000000E+00  0.45600000000E+02  0.45600000000E+02  0.00000000000E+00 0.  1.
         11   -1    0    0    0    0 -0.00000000000E+00 -0.00000000000E+00 -0.45600000000E+02  0.45600000000E+02  0.00000000000E+00 0.  1.
        -11    1    1    2    0    0  0.74342141933E+00  0.18884930740E+00  0.44584439179E+02  0.44591036726E+02  0.00000000000E+00 0.  1.
         11    1    1    2    0    0  0.16621114879E+01 -0.25124476599E+01 -0.33298673189E+02  0.33434662313E+02  0.00000000000E+00 0.  1.
        -15    1    1    2    0    0  0.64341287939E+00  0.30071541773E+00 -0.11021633441E+01  0.22083711040E+01  0.17770000000E+01 0.  1.
         15    1    1    2    0    0 -0.30489457866E+01  0.20228829348E+01 -0.10183602646E+02  0.10965929857E+02  0.17770000000E+01 0.  1.
</event>
<event>
 6    1  0.3691007E-002  0.4721420E+02  0.7546771E-02  0.1310384E+00
        -11   -1    0    0    0    0  0.00000000000E+00  0.00000000000E+00  0.45600000000E+02  0.45600000000E+02  0.00000000000E+00 0.  1.
         11   -1    0    0    0    0 -0.00000000000E+00 -0.00000000000E+00 -0.45600000000E+02  0.45600000000E+02  0.00000000000E+00 0.  1.
        -11    1    1    2    0    0  0.65667708063E+00  0.75856741685E+00  0.43974354677E+02  0.43985799056E+02  0.00000000000E+00 0.  1.
         11    1    1    2    0    0 -0.55068745813E+00  0.37706075570E+00 -0.33985483496E+02  0.33992036126E+02  0.00000000000E+00 0.  1.
        -15    1    1    2    0    0 -0.35510739823E+01 -0.21655907278E+01 -0.41500300969E+01  0.61384353408E+01  0.17770000000E+01 0.  1.
         15    1    1    2    0    0  0.34450843598E+01  0.10299625552E+01 -0.58388410837E+01  0.70837294776E+01  0.17770000000E+01 0.  1.
</event>
<event>
 6    1  0.3691007E-002  0.4616883E+02  0.7546771E-02  0.1315341E+00
        -11   -1    0    0    0    0  0.00000000000E+00  0.00000000000E+00  0.45600000000E+02  0.45600000000E+02  0.00000000000E+00 0.  1.
         11   -1    0    0    0    0 -0.00000000000E+00 -0.00000000000E+00 -0.45600000000E+02  0.45600000000E+02  0.00000000000E+00 0. -1.
        -11    1    1    2    0    0 -0.14216744463E+01  0.11709119660E+01  0.44993488999E+02  0.45031169709E+02  0.00000000000E+00 0.  1.
         11    1    1    2    0    0 -0.12486249013E+00 -0.64566887653E+00 -0.35820256344E+02  0.35826292628E+02  0.00000000000E+00 0. -1.
        -15    1    1    2    0    0 -0.64629899976E+00 -0.46005398251E+00 -0.34560521255E+01  0.39662800403E+01  0.17770000000E+01 0. -1.
         15    1    1    2    0    0  0.21928359362E+01 -0.65189106928E-01 -0.57171805293E+01  0.63762576224E+01  0.17770000000E+01 0. -1.
</event>
<event>
 6    1  0.3691007E-002  0.4676105E+02  0.7546771E-02  0.1312515E+00
        -11   -1    0    0    0    0  0.00000000000E+00  0.00000000000E+00  0.45600000000E+02  0.45600000000E+02  0.00000000000E+00 0. -1.
         11   -1    0    0    0    0 -0.00000000000E+00 -0.00000000000E+00 -0.45600000000E+02  0.45600000000E+02  0.00000000000E+00 0. -1.
        -11    1    1    2    0    0  0.15799391499E+00  0.67479643709E+00  0.44433547306E+02  0.44438951816E+02  0.00000000000E+00 0. -1.
         11    1    1    2    0    0 -0.62972208184E+00 -0.20996008142E+00 -0.35626467022E+02  0.35632650556E+02  0.00000000000E+00 0. -1.
        -15    1    1    2    0    0 -0.57475591827E+00 -0.34403888672E+00 -0.88606985860E+01  0.90619211844E+01  0.17770000000E+01 0. -1.
         15    1    1    2    0    0  0.10464840851E+01 -0.12079746895E+00  0.53618302178E-01  0.20664764434E+01  0.17770000000E+01 0.  1.
</event>
<event>
 6    1  0.3691007E-002  0.4572653E+02  0.7546771E-02  0.1317484E+00
        -11   -1    0    0    0    0  0.00000000000E+00  0.00000000000E+00  0.45600000000E+02  0.45600000000E+02  0.00000000000E+00 0. -1.
         11   -1    0    0    0    0 -0.00000000000E+00 -0.00000000000E+00 -0.45600000000E+02  0.45600000000E+02  0.00000000000E+00 0.  1.
        -11    1    1    2    0    0 -0.99077814707E-02 -0.73789704843E+00  0.91278486397E+01  0.91576312989E+01  0.00000000000E+00 0. -1.
         11    1    1    2    0    0  0.67264413157E-01  0.75453093085E+00 -0.45467164713E+02  0.45473474779E+02  0.00000000000E+00 0.  1.
        -15    1    1    2    0    0 -0.88004985538E+00 -0.27680839278E+00  0.14006553674E+02  0.14148935841E+02  0.17770000000E+01 0.  1.
         15    1    1    2    0    0  0.82269322369E+00  0.26017451036E+00  0.22332762400E+02  0.22419958080E+02  0.17770000000E+01 0. -1.
</event>
<event>
 6    1  0.3691007E-002  0.2681748E+02  0.7546771E-02  0.1448642E+00
        -11   -1    0    0    0    0  0.00000000000E+00  0.00000000000E+00  0.45600000000E+02  0.45600000000E+02  0.00000000000E+00 0.  1.
         11   -1    0    0    0    0 -0.00000000000E+00 -0.00000000000E+00 -0.45600000000E+02  0.45600000000E+02  0.00000000000E+00 0. -1.
        -11    1    1    2    0    0 -0.14112261787E+01  0.14007518176E+01  0.18315835856E+02  0.18423449951E+02  0.00000000000E+00 0.  1.
         11    1    1    2    0    0  0.17478703582E+01 -0.11772266573E+01 -0.27256484091E+02  0.27337827975E+02  0.00000000000E+00 0. -1.
        -15    1    1    2    0    0 -0.93810717191E+01 -0.40070346431E+00  0.25087190758E+02  0.26845668905E+02  0.17770000000E+01 0.  1.
         15    1    1    2    0    0  0.90444275396E+01  0.17717830392E+00 -0.16146542523E+02  0.18593053169E+02  0.17770000000E+01 0. -1.
</event>
<event>
 6    1  0.3691007E-002  0.4708608E+02  0.7546771E-02  0.1310984E+00
        -11   -1    0    0    0    0  0.00000000000E+00  0.00000000000E+00  0.45600000000E+02  0.45600000000E+02  0.00000000000E+00 0. -1.
         11   -1    0    0    0    0 -0.00000000000E+00 -0.00000000000E+00 -0.45600000000E+02  0.45600000000E+02  0.00000000000E+00 0.  1.
        -11    1    1    2    0    0 -0.47850896844E+00 -0.90711153658E+00  0.44101996196E+02  0.44113919466E+02  0.00000000000E+00 0. -1.
         11    1    1    2    0    0  0.35309140364E+00  0.14976460214E+01 -0.41619684181E+02  0.41648117946E+02  0.00000000000E+00 0.  1.
        -15    1    1    2    0    0  0.12531135876E+01  0.79809076324E+00 -0.12331461614E+01  0.26240466812E+01  0.17770000000E+01 0.  1.
         15    1    1    2    0    0 -0.11276960228E+01 -0.13886252480E+01 -0.12491658535E+01  0.28139159065E+01  0.17770000000E+01 0. -1.
</event>
<event>
 6    1  0.3691007E-002  0.4723460E+02  0.7546771E-02  0.1310289E+00
        -11   -1    0    0    0    0  0.00000000000E+00  0.00000000000E+00  0.45600000000E+02  0.45600000000E+02  0.00000000000E+00 0. -1.
         11   -1    0    0    0    0 -0.00000000000E+00 -0.00000000000E+00 -0.45600000000E+02  0.45600000000E+02  0.00000000000E+00 0.  1.
        -11    1    1    2    0    0 -0.10523560736E+01  0.66092497798E+00  0.43947836383E+02  0.43965402283E+02  0.00000000000E+00 0. -1.
         11    1    1    2    0    0 -0.18404810345E+01 -0.11221688417E+01 -0.37389670969E+02  0.37451757348E+02  0.00000000000E+00 0.  1.
        -15    1    1    2    0    0  0.17136359363E+01 -0.12575171598E+01 -0.64746788485E+01  0.70425203387E+01  0.17770000000E+01 0. -1.
         15    1    1    2    0    0  0.11792011718E+01  0.17187610236E+01 -0.83486566253E-01  0.27403200300E+01  0.17770000000E+01 0.  1.
</event>
<event>
 6    1  0.3691007E-002  0.4600642E+02  0.7546771E-02  0.1316125E+00
        -11   -1    0    0    0    0  0.00000000000E+00  0.00000000000E+00  0.45600000000E+02  0.45600000000E+02  0.00000000000E+00 0. -1.
         11   -1    0    0    0    0 -0.00000000000E+00 -0.00000000000E+00 -0.45600000000E+02  0.45600000000E+02  0.00000000000E+00 0. -1.
        -11    1    1    2    0    0  0.33481439407E+01  0.59572284658E+00  0.45065449612E+02  0.45193580321E+02  0.00000000000E+00 0. -1.
         11    1    1    2    0    0 -0.73719811889E+00  0.21477815486E+01 -0.17270591172E+02  0.17419234945E+02  0.00000000000E+00 0. -1.
        -15    1    1    2    0    0  0.51747553704E+00  0.41004358713E+00 -0.83282711368E+01  0.85412964942E+01  0.17770000000E+01 0. -1.
         15    1    1    2    0    0 -0.31284213588E+01 -0.31535479823E+01 -0.19466587303E+02  0.20045888239E+02  0.17770000000E+01 0. -1.
</event>
<event>
 6    1  0.3691007E-002  0.4600230E+02  0.7546771E-02  0.1316145E+00
        -11   -1    0    0    0    0  0.00000000000E+00  0.00000000000E+00  0.45600000000E+02  0.45600000000E+02  0.00000000000E+00 0.  1.
         11   -1    0    0    0    0 -0.00000000000E+00 -0.00000000000E+00 -0.45600000000E+02  0.45600000000E+02  0.00000000000E+00 0. -1.
        -11    1    1    2    0    0  0.54298306173E-01  0.55925382309E+00  0.33873511776E+02  0.33878171633E+02  0.00000000000E+00 0.  1.
         11    1    1    2    0    0  0.76020959113E+00 -0.29199408896E+00 -0.45190366737E+02  0.45197703758E+02  0.00000000000E+00 0. -1.
        -15    1    1    2    0    0 -0.38204512364E+00  0.49561449526E+00  0.83252185483E+01  0.85357240514E+01  0.17770000000E+01 0.  1.
         15    1    1    2    0    0 -0.43246277365E+00 -0.76287422940E+00  0.29916364124E+01  0.35884005580E+01  0.17770000000E+01 0. -1.
</event>
<event>
 6    1  0.3691007E-002  0.3637545E+02  0.7546771E-02  0.1370612E+00
        -11   -1    0    0    0    0  0.00000000000E+00  0.00000000000E+00  0.45600000000E+02  0.45600000000E+02  0.00000000000E+00 0.  1.
         11   -1    0    0    0    0 -0.00000000000E+00 -0.00000000000E+00 -0.45600000000E+02  0.45600000000E+02  0.00000000000E+00 0. -1.
        -11    1    1    2    0    0 -0.24888512787E+01 -0.47927079901E+01  0.40442892989E+02  0.40801862995E+02  0.00000000000E+00 0.  1.
         11    1    1    2    0    0  0.12968261189E+01  0.11863502482E+01 -0.97318131490E+01  0.98892553845E+01  0.00000000000E+00 0. -1.
        -15    1    1    2    0    0  0.60825077518E+01  0.38558724678E+01  0.17591372277E+01  0.76234471091E+01  0.17770000000E+01 0.  1.
         15    1    1    2    0    0 -0.48904825920E+01 -0.24951472583E+00 -0.32470217068E+02  0.32885434511E+02  0.17770000000E+01 0. -1.
</event>
<event>
 6    1  0.3691007E-002  0.4800093E+02  0.7546771E-02  0.1306750E+00
        -11   -1    0    0    0    0  0.00000000000E+00  0.00000000000E+00  0.45600000000E+02  0.45600000000E+02  0.00000000000E+00 0.  1.
         11   -1    0    0    0    0 -0.00000000000E+00 -0.00000000000E+00 -0.45600000000E+02  0.45600000000E+02  0.00000000000E+00 0. -1.
        -11    1    1    2    0    0 -0.17075860105E+01  0.39186248278E+00  0.43163526821E+02  0.43199067743E+02  0.00000000000E+00 0.  1.
         11    1    1    2    0    0 -0.36212268332E+01  0.24013508370E+01 -0.27079720409E+02  0.27426101201E+02  0.00000000000E+00 0. -1.
        -15    1    1    2    0    0  0.21105188461E+01  0.37940188394E+01 -0.93590916663E+01  0.10468963395E+02  0.17770000000E+01 0. -1.
         15    1    1    2    0    0  0.32182939976E+01 -0.65872321591E+01 -0.67247147460E+01  0.10105867661E+02  0.17770000000E+01 0.  1.
</event>
<event>
 6    1  0.3691007E-002  0.4679567E+02  0.7546771E-02  0.1312351E+00
        -11   -1    0    0    0    0  0.00000000000E+00  0.00000000000E+00  0.45600000000E+02  0.45600000000E+02  0.00000000000E+00 0. -1.
         11   -1    0    0    0    0 -0.00000000000E+00 -0.00000000000E+00 -0.45600000000E+02  0.45600000000E+02  0.00000000000E+00 0.  1.
        -11    1    1    2    0    0  0.90324171524E+00  0.20079016128E+00  0.17750857981E+02  0.17774957703E+02  0.00000000000E+00 0. -1.
         11    1    1    2    0    0  0.72846143316E-01  0.25327829822E+01 -0.44331980768E+02  0.44404333291E+02  0.00000000000E+00 0.  1.
        -15    1    1    2    0    0 -0.50355625343E+00 -0.63795198190E+01  0.10459095972E+02  0.12389602882E+02  0.17770000000E+01 0.  1.
         15    1    1    2    0    0 -0.47253160513E+00  0.36459466755E+01  0.16122026815E+02  0.16631106124E+02  0.17770000000E+01 0. -1.
</event>
<event>
 6    1  0.3691007E-002  0.4966177E+02  0.7546771E-02  0.1299334E+00
        -11   -1    0    0    0    0  0.00000000000E+00  0.00000000000E+00  0.45600000000E+02  0.45600000000E+02  0.00000000000E+00 0.  1.
         11   -1    0    0    0    0 -0.00000000000E+00 -0.00000000000E+00 -0.45600000000E+02  0.45600000000E+02  0.00000000000E+00 0. -1.
        -11    1    1    2    0    0  0.52666792730E+01  0.36299374429E+01  0.35282367121E+02  0.35857492746E+02  0.00000000000E+00 0.  1.
         11    1    1    2    0    0  0.37830100940E-01  0.85385052407E+00 -0.41529436254E+02  0.41538230191E+02  0.00000000000E+00 0. -1.
        -15    1    1    2    0    0  0.66492601741E+00 -0.15036168083E+00  0.59103999099E+01  0.62092907275E+01  0.17770000000E+01 0. -1.
         15    1    1    2    0    0 -0.59694353913E+01 -0.43334262861E+01  0.33666922319E+00  0.75949863354E+01  0.17770000000E+01 0.  1.
</event>
<event>
 6    1  0.3691007E-002  0.4680711E+02  0.7546771E-02  0.1312297E+00
        -11   -1    0    0    0    0  0.00000000000E+00  0.00000000000E+00  0.45600000000E+02  0.45600000000E+02  0.00000000000E+00 0. -1.
         11   -1    0    0    0    0 -0.00000000000E+00 -0.00000000000E+00 -0.45600000000E+02  0.45600000000E+02  0.00000000000E+00 0.  1.
        -11    1    1    2    0    0 -0.15629483653E+01  0.62606105586E+00  0.44360946950E+02  0.44392886529E+02  0.00000000000E+00 0. -1.
         11    1    1    2    0    0  0.45844148550E+00  0.15071284043E+01 -0.38728068019E+02  0.38760093615E+02  0.00000000000E+00 0.  1.
        -15    1    1    2    0    0  0.45068996401E+00 -0.25339828629E+01 -0.14691983266E+01  0.34554975497E+01  0.17770000000E+01 0. -1.
         15    1    1    2    0    0  0.65381691576E+00  0.40079340276E+00 -0.41636806048E+01  0.45915223064E+01  0.17770000000E+01 0.  1.
</event>
<event>
 6    1  0.3691007E-002  0.4955666E+02  0.7546771E-02  0.1299794E+00
        -11   -1    0    0    0    0  0.00000000000E+00  0.00000000000E+00  0.45600000000E+02  0.45600000000E+02  0.00000000000E+00 0. -1.
         11   -1    0    0    0    0 -0.00000000000E+00 -0.00000000000E+00 -0.45600000000E+02  0.45600000000E+02  0.00000000000E+00 0. -1.
        -11    1    1    2    0    0  0.15830360660E+01  0.12168587122E+01  0.41595442369E+02  0.41643337692E+02  0.00000000000E+00 0. -1.
         11    1    1    2    0    0  0.20788124170E+01 -0.42094530025E+01 -0.36776442635E+02  0.37074892967E+02  0.00000000000E+00 0. -1.
        -15    1    1    2    0    0 -0.15369219206E+01  0.80913607780E+00  0.30051101359E+01  0.38993904795E+01  0.17770000000E+01 0.  1.
         15    1    1    2    0    0 -0.21249265624E+01  0.21834582125E+01 -0.78241098698E+01  0.85823788612E+01  0.17770000000E+01 0.  1.
</event>
<event>
 6    1  0.3691007E-002  0.4645372E+02  0.7546771E-02  0.1313975E+00
        -11   -1    0    0    0    0  0.00000000000E+00  0.00000000000E+00  0.45600000000E+02  0.45600000000E+02  0.00000000000E+00 0.  1.
         11   -1    0    0    0    0 -0.00000000000E+00 -0.00000000000E+00 -0.45600000000E+02  0.45600000000E+02  0.00000000000E+00 0. -1.
        -11    1    1    2    0    0 -0.59969204781E+00 -0.12192386340E+01  0.40491153984E+02  0.40513944814E+02  0.00000000000E+00 0.  1.
         11    1    1    2    0    0  0.57316821862E+00  0.41606117189E+00 -0.44740669932E+02  0.44746275540E+02  0.00000000000E+00 0. -1.
        -15    1    1    2    0    0  0.77771092772E+00  0.58739384213E+00  0.30362870778E+01  0.36505662618E+01  0.17770000000E+01 0. -1.
         15    1    1    2    0    0 -0.75118709854E+00  0.21578361999E+00  0.12132288701E+01  0.22892133843E+01  0.17770000000E+01 0.  1.
</event>
<event>
 6    1  0.3691007E-002  0.4715392E+02  0.7546771E-02  0.1310666E+00
        -11   -1    0    0    0    0  0.00000000000E+00  0.00000000000E+00  0.45600000000E+02  0.45600000000E+02  0.00000000000E+00 0.  1.
         11   -1    0    0    0    0 -0.00000000000E+00 -0.00000000000E+00 -0.45600000000E+02  0.45600000000E+02  0.00000000000E+00 0.  1.
        -11    1    1    2    0    0 -0.67862536968E-01 -0.89261349043E+00  0.44036981404E+02  0.44046079228E+02  0.00000000000E+00 0.  1.
         11    1    1    2    0    0 -0.15370453735E+01  0.17762355192E+01 -0.35405186014E+02  0.35483020134E+02  0.00000000000E+00 0.  1.
        -15    1    1    2    0    0  0.29770211701E+01 -0.22378705029E+01 -0.79572520015E+01  0.89636102018E+01  0.17770000000E+01 0.  1.
         15    1    1    2    0    0 -0.13721132596E+01  0.13542484741E+01 -0.67454338804E+00  0.27072904368E+01  0.17770000000E+01 0. -1.
</event>
<event>
 6    1  0.3691007E-002  0.4751759E+02  0.7546771E-02  0.1308973E+00
        -11   -1    0    0    0    0  0.00000000000E+00  0.00000000000E+00  0.45600000000E+02  0.45600000000E+02  0.00000000000E+00 0. -1.
         11   -1    0    0    0    0 -0.00000000000E+00 -0.00000000000E+00 -0.45600000000E+02  0.45600000000E+02  0.00000000000E+00 0.  1.
        -11    1    1    2    0    0  0.12444703653E+01  0.35303186132E+00  0.43663252459E+02  0.43682410113E+02  0.00000000000E+00 0. -1.
         11    1    1    2    0    0  0.57563469969E+00 -0.47142302149E+00 -0.41206031737E+02  0.41212748592E+02  0.00000000000E+00 0.  1.
        -15    1    1    2    0    0 -0.26173449544E+01 -0.12751340642E+01 -0.14870717503E+01  0.37209639722E+01  0.17770000000E+01 0. -1.
         15    1    1    2    0    0  0.79723988943E+00  0.13935252244E+01 -0.97014897108E+00  0.25838773226E+01  0.17770000000E+01 0. -1.
</event>
<event>
 6    1  0.3691007E-002  0.4155687E+02  0.7546771E-02  0.1339166E+00
        -11   -1    0    0    0    0  0.00000000000E+00  0.00000000000E+00  0.45600000000E+02  0.45600000000E+02  0.00000000000E+00 0. -1.
         11   -1    0    0    0    0 -0.00000000000E+00 -0.00000000000E+00 -0.45600000000E+02  0.45600000000E+02  0.00000000000E+00 0.  1.
        -11    1    1    2    0    0  0.30859797087E-01 -0.64850916164E+00  0.41785403626E+02  0.41790447146E+02  0.00000000000E+00 0. -1.
         11    1    1    2    0    0 -0.52704340174E+00  0.21841255403E+01 -0.41279397022E+02  0.41340498275E+02  0.00000000000E+00 0.  1.
        -15    1    1    2    0    0  0.26618432598E+01  0.16879345823E+01 -0.10406393178E+01  0.37649956021E+01  0.17770000000E+01 0. -1.
         15    1    1    2    0    0 -0.21656596552E+01 -0.32235509610E+01  0.53463271325E+00  0.43040589771E+01  0.17770000000E+01 0.  1.
</event>
<event>
 6    1  0.3691007E-002  0.4673162E+02  0.7546771E-02  0.1312654E+00
        -11   -1    0    0    0    0  0.00000000000E+00  0.00000000000E+00  0.45600000000E+02  0.45600000000E+02  0.00000000000E+00 0. -1.
         11   -1    0    0    0    0 -0.00000000000E+00 -0.00000000000E+00 -0.45600000000E+02  0.45600000000E+02  0.00000000000E+00 0.  1.
        -11    1    1    2    0    0 -0.12057222509E+01 -0.54562449921E+00  0.34035442967E+02  0.34061163372E+02  0.00000000000E+00 0. -1.
         11    1    1    2    0    0 -0.66247393550E+00 -0.35303320536E+01 -0.44323075674E+02  0.44468383750E+02  0.00000000000E+00 0.  1.
        -15    1    1    2    0    0  0.18770688884E+01  0.69100338710E+00  0.74310811042E+01  0.78980737316E+01  0.17770000000E+01 0.  1.
         15    1    1    2    0    0 -0.88727019930E-02  0.33849531657E+01  0.28565516026E+01  0.47723791465E+01  0.17770000000E+01 0. -1.
</event>
<event>
 6    1  0.3691007E-002  0.5052639E+02  0.7546771E-02  0.1295604E+00
        -11   -1    0    0    0    0  0.00000000000E+00  0.00000000000E+00  0.45600000000E+02  0.45600000000E+02  0.00000000000E+00 0.  1.
         11   -1    0    0    0    0 -0.00000000000E+00 -0.00000000000E+00 -0.45600000000E+02  0.45600000000E+02  0.00000000000E+00 0. -1.
        -11    1    1    2    0    0  0.26762577978E+01  0.31664185620E+01  0.29612302241E+02  0.29901120486E+02  0.00000000000E+00 0.  1.
         11    1    1    2    0    0  0.74648370035E+00  0.13399329762E+01 -0.40644677679E+02  0.40673609158E+02  0.00000000000E+00 0. -1.
        -15    1    1    2    0    0 -0.30107823259E+01  0.58920241807E+01  0.48064104263E+01  0.83689945242E+01  0.17770000000E+01 0. -1.
         15    1    1    2    0    0 -0.41195917226E+00 -0.10398375719E+02  0.62259650115E+01  0.12256275832E+02  0.17770000000E+01 0.  1.
</event>
<event>
 6    1  0.3691007E-002  0.4648203E+02  0.7546771E-02  0.1313840E+00
        -11   -1    0    0    0    0  0.00000000000E+00  0.00000000000E+00  0.45600000000E+02  0.45600000000E+02  0.00000000000E+00 0.  1.
         11   -1    0    0    0    0 -0.00000000000E+00 -0.00000000000E+00 -0.45600000000E+02  0.45600000000E+02  0.00000000000E+00 0.  1.
        -11    1    1    2    0    0  0.14604022305E+00 -0.11785660415E+01  0.39365076646E+02  0.39382986237E+02  0.00000000000E+00 0.  1.
         11    1    1    2    0    0  0.13486236598E+01  0.10499411289E+01 -0.44685295345E+02  0.44717969344E+02  0.00000000000E+00 0.  1.
        -15    1    1    2    0    0  0.64903165202E+00 -0.39492567040E-01  0.18460040416E+01  0.26435320444E+01  0.17770000000E+01 0.  1.
         15    1    1    2    0    0 -0.21436955349E+01  0.16811747962E+00  0.34742146578E+01  0.44555123747E+01  0.17770000000E+01 0. -1.
</event>
<event>
 6    1  0.3691007E-002  0.5071239E+02  0.7546771E-02  0.1294813E+00
        -11   -1    0    0    0    0  0.00000000000E+00  0.00000000000E+00  0.45600000000E+02  0.45600000000E+02  0.00000000000E+00 0.  1.
         11   -1    0    0    0    0 -0.00000000000E+00 -0.00000000000E+00 -0.45600000000E+02  0.45600000000E+02  0.00000000000E+00 0. -1.
        -11    1    1    2    0    0 -0.20317984557E+01 -0.82747566558E+00  0.40428127104E+02  0.40487607760E+02  0.00000000000E+00 0.  1.
         11    1    1    2    0    0  0.28667847172E+01  0.34447710526E+01 -0.37559625868E+02  0.37826054480E+02  0.00000000000E+00 0. -1.
        -15    1    1    2    0    0  0.14202306354E+01  0.54367374396E+00 -0.67325951386E+01  0.71272857736E+01  0.17770000000E+01 0. -1.
         15    1    1    2    0    0 -0.22552168968E+01 -0.31609691310E+01  0.38640939020E+01  0.57590519864E+01  0.17770000000E+01 0.  1.
</event>
<event>
 6    1  0.3691007E-002  0.4766983E+02  0.7546771E-02  0.1308270E+00
        -11   -1    0    0    0    0  0.00000000000E+00  0.00000000000E+00  0.45600000000E+02  0.45600000000E+02  0.00000000000E+00 0. -1.
         11   -1    0    0    0    0 -0.00000000000E+00 -0.00000000000E+00 -0.45600000000E+02  0.45600000000E+02  0.00000000000E+00 0.  1.
        -11    1    1    2    0    0  0.25597597934E+01  0.11312361569E+01  0.43440111102E+02  0.43530165610E+02  0.00000000000E+00 0. -1.
         11    1    1    2    0    0 -0.10597356602E-01  0.78950457060E+00 -0.41361627893E+02  0.41369163537E+02  0.00000000000E+00 0.  1.
        -15    1    1    2    0    0 -0.16569029929E+01 -0.48286274176E-01  0.57009959696E+00  0.24960772509E+01  0.17770000000E+01 0. -1.
         15    1    1    2    0    0 -0.89225944394E+00 -0.18724544533E+01 -0.26485828060E+01  0.38045936019E+01  0.17770000000E+01 0.  1.
</event>
<event>
 6    1  0.3691007E-002  0.4838324E+02  0.7546771E-02  0.1305013E+00
        -11   -1    0    0    0    0  0.00000000000E+00  0.00000000000E+00  0.45600000000E+02  0.45600000000E+02  0.00000000000E+00 0. -1.
         11   -1    0    0    0    0 -0.00000000000E+00 -0.00000000000E+00 -0.45600000000E+02  0.45600000000E+02  0.00000000000E+00 0.  1.
        -11    1    1    2    0    0  0.32815813476E+01  0.10589822607E+00  0.38085668400E+02  0.38226929357E+02  0.00000000000E+00 0. -1.
         11    1    1    2    0    0  0.40586630515E+00  0.50904639745E+00 -0.42811812919E+02  0.42816762852E+02  0.00000000000E+00 0.  1.
        -15    1    1    2    0    0  0.99403032571E+00  0.19084497432E+01  0.33920901012E+01  0.43925255794E+01  0.17770000000E+01 0.  1.
         15    1    1    2    0    0 -0.46814779784E+01 -0.25233943667E+01  0.13340544180E+01  0.57637822116E+01  0.17770000000E+01 0. -1.
</event>
<event>
 6    1  0.3691007E-002  0.4688923E+02  0.7546771E-02  0.1311909E+00
        -11   -1    0    0    0    0  0.00000000000E+00  0.00000000000E+00  0.45600000000E+02  0.45600000000E+02  0.00000000000E+00 0.  1.
         11   -1    0    0    0    0 -0.00000000000E+00 -0.00000000000E+00 -0.45600000000E+02  0.45600000000E+02  0.00000000000E+00 0. -1.
        -11    1    1    2    0    0  0.46379078950E+00  0.72447022489E+00  0.44302418045E+02  0.44310768484E+02  0.00000000000E+00 0.  1.
         11    1    1    2    0    0 -0.10449689425E+01 -0.63634280654E+00 -0.39035382720E+02  0.39054551545E+02  0.00000000000E+00 0. -1.
        -15    1    1    2    0    0  0.17596095347E+01  0.41610293744E+00 -0.50275660092E+01  0.56305875667E+01  0.17770000000E+01 0. -1.
         15    1    1    2    0    0 -0.11784313817E+01 -0.50423035579E+00 -0.23946931582E+00  0.22040924042E+01  0.17770000000E+01 0. -1.
</event>
<event>
 6    1  0.3691007E-002  0.4808499E+02  0.7546771E-02  0.1306366E+00
        -11   -1    0    0    0    0  0.00000000000E+00  0.00000000000E+00  0.45600000000E+02  0.45600000000E+02  0.00000000000E+00 0.  1.
         11   -1    0    0    0    0 -0.00000000000E+00 -0.00000000000E+00 -0.45600000000E+02  0.45600000000E+02  0.00000000000E+00 0. -1.
        -11    1    1    2    0    0  0.27403353118E+01 -0.85680895854E+00  0.39640654584E+02  0.39744497167E+02  0.00000000000E+00 0.  1.
         11    1    1    2    0    0  0.16919795328E+01  0.29610604561E+01 -0.42979916346E+02  0.43115007629E+02  0.00000000000E+00 0. -1.
        -15    1    1    2    0    0 -0.17061717076E+01 -0.74159985667E+00  0.39954060547E+01  0.47520512187E+01  0.17770000000E+01 0. -1.
         15    1    1    2    0    0 -0.27261431370E+01 -0.13626516409E+01 -0.65614429336E+00  0.35884439847E+01  0.17770000000E+01 0. -1.
</event>
<event>
 6    1  0.3691007E-002  0.4888439E+02  0.7546771E-02  0.1302763E+00
        -11   -1    0    0    0    0  0.00000000000E+00  0.00000000000E+00  0.45600000000E+02  0.45600000000E+02  0.00000000000E+00 0.  1.
         11   -1    0    0    0    0 -0.00000000000E+00 -0.00000000000E+00 -0.45600000000E+02  0.45600000000E+02  0.00000000000E+00 0.  1.
        -11    1    1    2    0    0 -0.76846557624E+00 -0.49565594254E+00  0.42305724502E+02  0.42315606338E+02  0.00000000000E+00 0.  1.
         11    1    1    2    0    0  0.66508129124E+00  0.36840872647E+00 -0.33873823389E+02  0.33882354834E+02  0.00000000000E+00 0.  1.
        -15    1    1    2    0    0 -0.21975161683E+01  0.20663431032E+01 -0.10412455359E+02  0.10985254059E+02  0.17770000000E+01 0.  1.
         15    1    1    2    0    0  0.23009004533E+01 -0.19390958871E+01  0.19805542467E+01  0.40167847689E+01  0.17770000000E+01 0. -1.
</event>
<event>
 6    1  0.3691007E-002  0.5072109E+02  0.7546771E-02  0.1294776E+00
        -11   -1    0    0    0    0  0.00000000000E+00  0.00000000000E+00  0.45600000000E+02  0.45600000000E+02  0.00000000000E+00 0.  1.
         11   -1    0    0    0    0 -0.00000000000E+00 -0.00000000000E+00 -0.45600000000E+02  0.45600000000E+02  0.00000000000E+00 0. -1.
        -11    1    1    2    0    0 -0.34175964160E+01  0.36130376052E+01  0.35533847555E+02  0.35880194092E+02  0.00000000000E+00 0.  1.
         11    1    1    2    0    0  0.50674270773E+01  0.21173111807E+01 -0.40104619701E+02  0.40478912352E+02  0.00000000000E+00 0. -1.
        -15    1    1    2    0    0  0.11951551719E+01 -0.26674013801E+01 -0.39253702655E+01  0.52066963354E+01  0.17770000000E+01 0. -1.
         15    1    1    2    0    0 -0.28449858333E+01 -0.30629474058E+01  0.84961424117E+01  0.96341972204E+01  0.17770000000E+01 0.  1.
</event>
<event>
 6    1  0.3691007E-002  0.4706049E+02  0.7546771E-02  0.1311104E+00
        -11   -1    0    0    0    0  0.00000000000E+00  0.00000000000E+00  0.45600000000E+02  0.45600000000E+02  0.00000000000E+00 0. -1.
         11   -1    0    0    0    0 -0.00000000000E+00 -0.00000000000E+00 -0.45600000000E+02  0.45600000000E+02  0.00000000000E+00 0. -1.
        -11    1    1    2    0    0 -0.64682885757E+00 -0.46957291885E+00  0.44132275318E+02  0.44139513035E+02  0.00000000000E+00 0. -1.
         11    1    1    2    0    0 -0.13800009703E+01  0.10693595144E+00 -0.40102711320E+02  0.40126590849E+02  0.00000000000E+00 0. -1.
        -15    1    1    2    0    0  0.28686575638E+01 -0.17238862833E-02 -0.35072852273E+01  0.48670296748E+01  0.17770000000E+01 0. -1.
         15    1    1    2    0    0 -0.84182773599E+00  0.36436085370E+00 -0.52227877055E+00  0.20668664405E+01  0.17770000000E+01 0. -1.
</event>
<event>
 6    1  0.3691007E-002  0.4677730E+02  0.7546771E-02  0.1312438E+00
        -11   -1    0    0    0    0  0.00000000000E+00  0.00000000000E+00  0.45600000000E+02  0.45600000000E+02  0.00000000000E+00 0.  1.
         11   -1    0    0    0    0 -0.00000000000E+00 -0.00000000000E+00 -0.45600000000E+02  0.45600000000E+02  0.00000000000E+00 0.  1.
        -11    1    1    2    0    0  0.12995586431E+01 -0.21992011839E+00  0.44403144007E+02  0.44422701575E+02  0.00000000000E+00 0.  1.
         11    1    1    2    0    0  0.45208307168E+00 -0.54376028679E+00 -0.15874242822E+02  0.15889985511E+02  0.00000000000E+00 0.  1.
        -15    1    1    2    0    0  0.20054563364E+01 -0.15736789654E+01 -0.24348474044E+02  0.24545961743E+02  0.17770000000E+01 0.  1.
         15    1    1    2    0    0 -0.37570980512E+01  0.23373593706E+01 -0.41804271415E+01  0.63413511714E+01  0.17770000000E+01 0. -1.
</event>
<event>
 6    1  0.3691007E-002  0.3708379E+02  0.7546771E-02  0.1365964E+00
        -11   -1    0    0    0    0  0.00000000000E+00  0.00000000000E+00  0.45600000000E+02  0.45600000000E+02  0.00000000000E+00 0.  1.
         11   -1    0    0    0    0 -0.00000000000E+00 -0.00000000000E+00 -0.45600000000E+02  0.45600000000E+02  0.00000000000E+00 0. -1.
        -11    1    1    2    0    0 -0.45480601413E+01 -0.34460275061E+01  0.37795343363E+02  0.38223656766E+02  0.00000000000E+00 0.  1.
         11    1    1    2    0    0 -0.28526910812E+00 -0.51017098383E+00 -0.36218454383E+02  0.36223170634E+02  0.00000000000E+00 0. -1.
        -15    1    1    2    0    0  0.17741195788E+00 -0.12979334356E+01 -0.72342886011E+01  0.75636477159E+01  0.17770000000E+01 0. -1.
         15    1    1    2    0    0  0.46559172915E+01  0.52541319255E+01  0.56573996209E+01  0.91895248836E+01  0.17770000000E+01 0.  1.
</event>
<event>
 6    1  0.3691007E-002  0.4581422E+02  0.7546771E-02  0.1317057E+00
        -11   -1    0    0    0    0  0.00000000000E+00  0.00000000000E+00  0.45600000000E+02  0.45600000000E+02  0.00000000000E+00 0. -1.
         11   -1    0    0    0    0 -0.00000000000E+00 -0.00000000000E+00 -0.45600000000E+02  0.45600000000E+02  0.00000000000E+00 0.  1.
        -11    1    1    2    0    0 -0.74176511916E+00 -0.62273227824E+00  0.45375445942E+02  0.45385780873E+02  0.00000000000E+00 0. -1.
         11    1    1    2    0    0 -0.74196520771E+00  0.56803960118E-01 -0.11347181832E+02  0.11371555504E+02  0.00000000000E+00 0.  1.
        -15    1    1    2    0    0  0.10789192808E+01  0.15513952049E+01 -0.10206464478E+02  0.10530932534E+02  0.17770000000E+01 0.  1.
         15    1    1    2    0    0  0.40481104607E+00 -0.98546688679E+00 -0.23821799632E+02  0.23911731089E+02  0.17770000000E+01 0.  1.
</event>
<event>
 6    1  0.3691007E-002  0.4221222E+02  0.7546771E-02  0.1335568E+00
        -11   -1    0    0    0    0  0.00000000000E+00  0.00000000000E+00  0.45600000000E+02  0.45600000000E+02  0.00000000000E+00 0.  1.
         11   -1    0    0    0    0 -0.00000000000E+00 -0.00000000000E+00 -0.45600000000E+02  0.45600000000E+02  0.00000000000E+00 0. -1.
        -11    1    1    2    0    0  0.59488201358E+00  0.17268606251E+00  0.42585011687E+02  0.42589516615E+02  0.00000000000E+00 0.  1.
         11    1    1    2    0    0  0.86338503296E+00 -0.84029873512E+00 -0.41836129995E+02  0.41853474272E+02  0.00000000000E+00 0. -1.
        -15    1    1    2    0    0  0.35576836657E+00 -0.83537270047E+00  0.19266348066E+01  0.27738185516E+01  0.17770000000E+01 0. -1.
         15    1    1    2    0    0 -0.18140354131E+01  0.15029853731E+01 -0.26755164988E+01  0.39831905612E+01  0.17770000000E+01 0. -1.
</event>
<event>
 6    1  0.3691007E-002  0.4733040E+02  0.7546771E-02  0.1309842E+00
        -11   -1    0    0    0    0  0.00000000000E+00  0.00000000000E+00  0.45600000000E+02  0.45600000000E+02  0.00000000000E+00 0.  1.
         11   -1    0    0    0    0 -0.00000000000E+00 -0.00000000000E+00 -0.45600000000E+02  0.45600000000E+02  0.00000000000E+00 0.  1.
        -11    1    1    2    0    0  0.15790577164E+01 -0.36735160564E+01  0.43686993629E+02  0.43869597170E+02  0.00000000000E+00 0.  1.
         11    1    1    2    0    0 -0.47322034249E+01  0.35510478955E+01 -0.30282791168E+02  0.30855325818E+02  0.00000000000E+00 0.  1.
        -15    1    1    2    0    0  0.48807263450E+01 -0.26238492815E+01 -0.72754373458E+01  0.93164259391E+01  0.17770000000E+01 0. -1.
         15    1    1    2    0    0 -0.17275806365E+01  0.27463174424E+01 -0.61287651158E+01  0.71586510737E+01  0.17770000000E+01 0.  1.
</event>
<event>
 6    1  0.3691007E-002  0.4607625E+02  0.7546771E-02  0.1315787E+00
        -11   -1    0    0    0    0  0.00000000000E+00  0.00000000000E+00  0.45600000000E+02  0.45600000000E+02  0.00000000000E+00 0.  1.
         11   -1    0    0    0    0 -0.00000000000E+00 -0.00000000000E+00 -0.45600000000E+02  0.45600000000E+02  0.00000000000E+00 0.  1.
        -11    1    1    2    0    0  0.49279181653E+00 -0.23650288042E+00  0.33664551287E+02  0.33668988561E+02  0.00000000000E+00 0.  1.
         11    1    1    2    0    0  0.15287826621E+00  0.10292210535E+01 -0.45111747367E+02  0.45123745614E+02  0.00000000000E+00 0.  1.
        -15    1    1    2    0    0  0.80796003245E+00 -0.12881959872E+00  0.78386876847E+01  0.80791179916E+01  0.17770000000E+01 0. -1.
         15    1    1    2    0    0 -0.14536301152E+01 -0.66389857439E+00  0.36085083951E+01  0.43281478332E+01  0.17770000000E+01 0.  1.
</event>
<event>
 6    1  0.3691007E-002  0.4578474E+02  0.7546771E-02  0.1317200E+00
        -11   -1    0    0    0    0  0.00000000000E+00  0.00000000000E+00  0.45600000000E+02  0.45600000000E+02  0.00000000000E+00 0. -1.
         11   -1    0    0    0    0 -0.00000000000E+00 -0.00000000000E+00 -0.45600000000E+02  0.45600000000E+02  0.00000000000E+00 0.  1.
        -11    1    1    2    0    0 -0.63507600007E+00 -0.71010301016E+00  0.45405270213E+02  0.45415263193E+02  0.00000000000E+00 0. -1.
         11    1    1    2    0    0  0.33422533664E+00  0.12345574487E+01 -0.16521270942E+02  0.16570704035E+02  0.00000000000E+00 0.  1.
        -15    1    1    2    0    0  0.11466397904E+01  0.37119203197E+00 -0.11801872219E+02  0.11995602661E+02  0.17770000000E+01 0. -1.
         15    1    1    2    0    0 -0.84578912702E+00 -0.89564647048E+00 -0.17082127052E+02  0.17218430111E+02  0.17770000000E+01 0.  1.
</event>
<event>
 6    1  0.3691007E-002  0.4971945E+02  0.7546771E-02  0.1299083E+00
        -11   -1    0    0    0    0  0.00000000000E+00  0.00000000000E+00  0.45600000000E+02  0.45600000000E+02  0.00000000000E+00 0.  1.
         11   -1    0    0    0    0 -0.00000000000E+00 -0.00000000000E+00 -0.45600000000E+02  0.45600000000E+02  0.00000000000E+00 0. -1.
        -11    1    1    2    0    0  0.27272900675E+00  0.15758512942E+01  0.41449705337E+02  0.41480546777E+02  0.00000000000E+00 0.  1.
         11    1    1    2    0    0  0.21286123346E+01  0.91211732776E+00 -0.19140856742E+02  0.19280439448E+02  0.00000000000E+00 0. -1.
        -15    1    1    2    0    0  0.69360187047E+00  0.18249709897E+01  0.32996693437E+01  0.42257720532E+01  0.17770000000E+01 0. -1.
         15    1    1    2    0    0 -0.30949432118E+01 -0.43129396117E+01 -0.25608517938E+02  0.26213241722E+02  0.17770000000E+01 0. -1.
</event>
<event>
 6    1  0.3691007E-002  0.4759283E+02  0.7546771E-02  0.1308625E+00
        -11   -1    0    0    0    0  0.00000000000E+00  0.00000000000E+00  0.45600000000E+02  0.45600000000E+02  0.00000000000E+00 0.  1.
         11   -1    0    0    0    0 -0.00000000000E+00 -0.00000000000E+00 -0.45600000000E+02  0.45600000000E+02  0.00000000000E+00 0. -1.
        -11    1    1    2    0    0 -0.14365065422E+01  0.10613539734E+01  0.34369000869E+02  0.34415378017E+02  0.00000000000E+00 0.  1.
         11    1    1    2    0    0  0.18144792749E+01  0.17105880863E+01 -0.43535806958E+02  0.43607166087E+02  0.00000000000E+00 0. -1.
        -15    1    1    2    0    0 -0.32410165521E+01 -0.21545348774E+01  0.11061037977E+01  0.44189821724E+01  0.17770000000E+01 0. -1.
         15    1    1    2    0    0  0.28630438194E+01 -0.61740718228E+00  0.80607022911E+01  0.87584737236E+01  0.17770000000E+01 0. -1.
</event>
<event>
 6    1  0.3691007E-002  0.4716188E+02  0.7546771E-02  0.1310629E+00
        -11   -1    0    0    0    0  0.00000000000E+00  0.00000000000E+00  0.45600000000E+02  0.45600000000E+02  0.00000000000E+00 0. -1.
         11   -1    0    0    0    0 -0.00000000000E+00 -0.00000000000E+00 -0.45600000000E+02  0.45600000000E+02  0.00000000000E+00 0.  1.
        -11    1    1    2    0    0  0.31323884552E+01  0.22460844570E+01  0.33038182491E+02  0.33262264732E+02  0.00000000000E+00 0. -1.
         11    1    1    2    0    0 -0.51389723750E+00 -0.13517264099E+01 -0.44014365169E+02  0.44038115263E+02  0.00000000000E+00 0.  1.
        -15    1    1    2    0    0 -0.22723940636E+01  0.30419893470E+01  0.55752996228E+01  0.69756124356E+01  0.17770000000E+01 0. -1.
         15    1    1    2    0    0 -0.34609715420E+00 -0.39363473941E+01  0.54008830550E+01  0.69240075694E+01  0.17770000000E+01 0. -1.
</event>
<event>
 6    1  0.3691007E-002  0.4681089E+02  0.7546771E-02  0.1312279E+00
        -11   -1    0    0    0    0  0.00000000000E+00  0.00000000000E+00  0.45600000000E+02  0.45600000000E+02  0.00000000000E+00 0.  1.
         11   -1    0    0    0    0 -0.00000000000E+00 -0.00000000000E+00 -0.45600000000E+02  0.45600000000E+02  0.00000000000E+00 0. -1.
        -11    1    1    2    0    0  0.87626232100E+00 -0.15492626989E+01  0.21613277687E+01  0.27998907638E+01  0.00000000000E+00 0.  1.
         11    1    1    2    0    0 -0.64503118236E+01 -0.11564309514E+02 -0.40246961105E+02  0.42369300860E+02  0.00000000000E+00 0. -1.
        -15    1    1    2    0    0  0.12404040997E+02  0.12914878633E+02  0.21710748985E+02  0.28198735320E+02  0.17770000000E+01 0.  1.
         15    1    1    2    0    0 -0.68299914944E+01  0.19869358051E+00  0.16374884351E+02  0.17832073056E+02  0.17770000000E+01 0. -1.
</event>
<event>
 6    1  0.3691007E-002  0.4629286E+02  0.7546771E-02  0.1314745E+00
        -11   -1    0    0    0    0  0.00000000000E+00  0.00000000000E+00  0.45600000000E+02  0.45600000000E+02  0.00000000000E+00 0. -1.
         11   -1    0    0    0    0 -0.00000000000E+00 -0.00000000000E+00 -0.45600000000E+02  0.45600000000E+02  0.00000000000E+00 0. -1.
        -11    1    1    2    0    0 -0.14124636469E+01  0.11008555067E+00  0.44884782211E+02  0.44907135808E+02  0.00000000000E+00 0. -1.
         11    1    1    2    0    0  0.54115364973E+00 -0.98851982821E+00 -0.37789895134E+02  0.37806695081E+02  0.00000000000E+00 0. -1.
        -15    1    1    2    0    0 -0.27891480085E+00  0.13488782833E+01 -0.22629514012E+01  0.31899755694E+01  0.17770000000E+01 0. -1.
         15    1    1    2    0    0  0.11502247980E+01 -0.47044400575E+00 -0.48319356759E+01  0.52961935410E+01  0.17770000000E+01 0.  1.
</event>
<event>
 6    1  0.3691007E-002  0.4731791E+02  0.7546771E-02  0.1309900E+00
        -11   -1    0    0    0    0  0.00000000000E+00  0.00000000000E+00  0.45600000000E+02  0.45600000000E+02  0.00000000000E+00 0. -1.
         11   -1    0    0    0    0 -0.00000000000E+00 -0.00000000000E+00 -0.45600000000E+02  0.45600000000E+02  0.00000000000E+00 0. -1.
        -11    1    1    2    0    0  0.70719100521E-01 -0.84124696245E+00  0.34046775294E+02  0.34057240134E+02  0.00000000000E+00 0. -1.
         11    1    1    2    0    0 -0.35082754100E+00 -0.76955101481E+00 -0.43873934497E+02  0.43882085377E+02  0.00000000000E+00 0. -1.
        -15    1    1    2    0    0 -0.97881286119E+00  0.33178420345E+01  0.97450787657E+01  0.10492399131E+02  0.17770000000E+01 0.  1.
         15    1    1    2    0    0  0.12589213017E+01 -0.17070440573E+01  0.82080437643E-01  0.27682753576E+01  0.17770000000E+01 0. -1.
</event>
<event>
 6    1  0.3691007E-002  0.4622507E+02  0.7546771E-02  0.1315071E+00
        -11   -1    0    0    0    0  0.00000000000E+00  0.00000000000E+00  0.45600000000E+02  0.45600000000E+02  0.00000000000E+00 0. -1.
         11   -1    0    0    0    0 -0.00000000000E+00 -0.00000000000E+00 -0.45600000000E+02  0.45600000000E+02  0.00000000000E+00 0. -1.
        -11    1    1    2    0    0  0.29507007383E+00 -0.12332518026E+01  0.34651395359E+02  0.34674589783E+02  0.00000000000E+00 0. -1.
         11    1    1    2    0    0 -0.69901134659E+00 -0.12340776111E+01 -0.44952564224E+02  0.44974932960E+02  0.00000000000E+00 0. -1.
        -15    1    1    2    0    0  0.44943039362E+00  0.19584538135E+01  0.30247692857E+01  0.40428315881E+01  0.17770000000E+01 0. -1.
         15    1    1    2    0    0 -0.45489120851E-01  0.50887560011E+00  0.72763995800E+01  0.75076456685E+01  0.17770000000E+01 0. -1.
</event>
<event>
 6    1  0.3691007E-002  0.4769720E+02  0.7546771E-02  0.1308143E+00
        -11   -1    0    0    0    0  0.00000000000E+00  0.00000000000E+00  0.45600000000E+02  0.45600000000E+02  0.00000000000E+00 0. -1.
         11   -1    0    0    0    0 -0.00000000000E+00 -0.00000000000E+00 -0.45600000000E+02  0.45600000000E+02  0.00000000000E+00 0.  1.
        -11    1    1    2    0    0 -0.12149064779E+00 -0.60597546190E+00  0.37156859650E+02  0.37161999210E+02  0.00000000000E+00 0. -1.
         11    1    1    2    0    0 -0.40225671299E+00  0.15330737301E+01 -0.43473917640E+02  0.43502800376E+02  0.00000000000E+00 0.  1.
        -15    1    1    2    0    0  0.48282555515E+00 -0.22756497820E+01 -0.83426037011E+00  0.30439155396E+01  0.17770000000E+01 0. -1.
         15    1    1    2    0    0  0.40921805632E-01  0.13485515138E+01  0.71513183607E+01  0.74912848748E+01  0.17770000000E+01 0. -1.
</event>
<event>
 6    1  0.3691007E-002  0.4945420E+02  0.7546771E-02  0.1300243E+00
        -11   -1    0    0    0    0  0.00000000000E+00  0.00000000000E+00  0.45600000000E+02  0.45600000000E+02  0.00000000000E+00 0.  1.
         11   -1    0    0    0    0 -0.00000000000E+00 -0.00000000000E+00 -0.45600000000E+02  0.45600000000E+02  0.00000000000E+00 0.  1.
        -11    1    1    2    0    0 -0.18546744015E+01 -0.12844554901E+01  0.41684792049E+02  0.41745796570E+02  0.00000000000E+00 0.  1.
         11    1    1    2    0    0 -0.89249373794E-01 -0.57021566994E+00 -0.35768734652E+02  0.35773390809E+02  0.00000000000E+00 0.  1.
        -15    1    1    2    0    0  0.31072671625E+01  0.48057968926E+01  0.79817211581E+00  0.60452957511E+01  0.17770000000E+01 0. -1.
         15    1    1    2    0    0 -0.11633433872E+01 -0.29511257326E+01 -0.67142295132E+01  0.76355168706E+01  0.17770000000E+01 0.  1.
</event>
<event>
 6    1  0.3691007E-002  0.4755716E+02  0.7546771E-02  0.1308790E+00
        -11   -1    0    0    0    0  0.00000000000E+00  0.00000000000E+00  0.45600000000E+02  0.45600000000E+02  0.00000000000E+00 0.  1.
         11   -1    0    0    0    0 -0.00000000000E+00 -0.00000000000E+00 -0.45600000000E+02  0.45600000000E+02  0.00000000000E+00 0. -1.
        -11    1    1    2    0    0  0.76575669462E+00 -0.15613015066E+01  0.43608185496E+02  0.43642844636E+02  0.00000000000E+00 0.  1.
         11    1    1    2    0    0  0.19142492559E+01  0.63525147663E+00 -0.39618016664E+02  0.39669322392E+02  0.00000000000E+00 0. -1.
        -15    1    1    2    0    0 -0.16111067414E+01  0.26841051453E+01 -0.78379242655E+00  0.36840392141E+01  0.17770000000E+01 0.  1.
         15    1    1    2    0    0 -0.10688992091E+01 -0.17580551154E+01 -0.32063764046E+01  0.42037937576E+01  0.17770000000E+01 0.  1.
</event>
<event>
 6    1  0.3691007E-002  0.4744809E+02  0.7546771E-02  0.1309295E+00
        -11   -1    0    0    0    0  0.00000000000E+00  0.00000000000E+00  0.45600000000E+02  0.45600000000E+02  0.00000000000E+00 0. -1.
         11   -1    0    0    0    0 -0.00000000000E+00 -0.00000000000E+00 -0.45600000000E+02  0.45600000000E+02  0.00000000000E+00 0. -1.
        -11    1    1    2    0    0  0.61352674204E+00  0.70276693065E+00  0.43741966055E+02  0.43751912996E+02  0.00000000000E+00 0. -1.
         11    1    1    2    0    0 -0.61943946408E+00  0.24678075845E-01 -0.42726592928E+02  0.42731090058E+02  0.00000000000E+00 0. -1.
        -15    1    1    2    0    0 -0.10058592121E+01 -0.13129106228E+01 -0.89242725958E+00  0.25864343162E+01  0.17770000000E+01 0. -1.
         15    1    1    2    0    0  0.10117719342E+01  0.58546561634E+00 -0.12294586746E+00  0.21305626301E+01  0.17770000000E+01 0. -1.
</event>
<event>
 6    1  0.3691007E-002  0.4778086E+02  0.7546771E-02  0.1307758E+00
        -11   -1    0    0    0    0  0.00000000000E+00  0.00000000000E+00  0.45600000000E+02  0.45600000000E+02  0.00000000000E+00 0.  1.
         11   -1    0    0    0    0 -0.00000000000E+00 -0.00000000000E+00 -0.45600000000E+02  0.45600000000E+02  0.00000000000E+00 0.  1.
        -11    1    1    2    0    0 -0.62773362491E+00  0.68960714309E+00  0.36462723320E+02  0.36474645981E+02  0.00000000000E+00 0.  1.
         11    1    1    2    0    0  0.32080879623E+00  0.72674281516E+00 -0.43411873791E+02  0.43419141625E+02  0.00000000000E+00 0.  1.
        -15    1    1    2    0    0 -0.15222446485E+01 -0.42087960838E+01  0.23692271100E+01  0.53667643272E+01  0.17770000000E+01 0.  1.
         15    1    1    2    0    0  0.18291694772E+01  0.27924461255E+01  0.45799233616E+01  0.59394480668E+01  0.17770000000E+01 0.  1.
</event>
<event>
 6    1  0.3691007E-002  0.4173602E+02  0.7546771E-02  0.1338175E+00
        -11   -1    0    0    0    0  0.00000000000E+00  0.00000000000E+00  0.45600000000E+02  0.45600000000E+02  0.00000000000E+00 0.  1.
         11   -1    0    0    0    0 -0.00000000000E+00 -0.00000000000E+00 -0.45600000000E+02  0.45600000000E+02  0.00000000000E+00 0. -1.
        -11    1    1    2    0    0 -0.89257751880E+00 -0.13360357941E+01  0.41051251989E+02  0.41082684626E+02  0.00000000000E+00 0.  1.
         11    1    1    2    0    0 -0.24693329919E+01 -0.43024119650E+00 -0.42412793003E+02  0.42486794693E+02  0.00000000000E+00 0. -1.
        -15    1    1    2    0    0  0.44218667446E+01  0.23540579067E+01  0.13306752575E+01  0.54793174553E+01  0.17770000000E+01 0. -1.
         15    1    1    2    0    0 -0.10599562338E+01 -0.58778091613E+00  0.30865757279E-01  0.21512032256E+01  0.17770000000E+01 0.  1.
</event>
<event>
 6    1  0.3691007E-002  0.5001568E+02  0.7546771E-02  0.1297797E+00
        -11   -1    0    0    0    0  0.00000000000E+00  0.00000000000E+00  0.45600000000E+02  0.45600000000E+02  0.00000000000E+00 0. -1.
         11   -1    0    0    0    0 -0.00000000000E+00 -0.00000000000E+00 -0.45600000000E+02  0.45600000000E+02  0.00000000000E+00 0. -1.
        -11    1    1    2    0    0 -0.41092920614E+01 -0.16761114001E+01  0.40944508113E+02  0.41184321960E+02  0.00000000000E+00 0. -1.
         11    1    1    2    0    0 -0.42465567572E+00 -0.52292691826E+00 -0.36339281117E+02  0.36345524306E+02  0.00000000000E+00 0. -1.
        -15    1    1    2    0    0  0.35965928751E+01  0.20310215701E+00 -0.81779438125E+01  0.91111593552E+01  0.17770000000E+01 0. -1.
         15    1    1    2    0    0  0.93735486202E+00  0.19959361613E+01  0.35727168160E+01  0.45589943787E+01  0.17770000000E+01 0.  1.
</event>
<event>
 6    1  0.3691007E-002  0.4849210E+02  0.7546771E-02  0.1304521E+00
        -11   -1    0    0    0    0  0.00000000000E+00  0.00000000000E+00  0.45600000000E+02  0.45600000000E+02  0.00000000000E+00 0. -1.
         11   -1    0    0    0    0 -0.00000000000E+00 -0.00000000000E+00 -0.45600000000E+02  0.45600000000E+02  0.00000000000E+00 0.  1.
        -11    1    1    2    0    0 -0.31204796256E+00  0.81808226871E+00  0.42698925510E+02  0.42707901754E+02  0.00000000000E+00 0. -1.
         11    1    1    2    0    0  0.61288123989E+00  0.16213315979E+00 -0.41483065550E+02  0.41487909541E+02  0.00000000000E+00 0.  1.
        -15    1    1    2    0    0  0.43721766366E+00 -0.22281143070E+01  0.16590857754E+01  0.33265518575E+01  0.17770000000E+01 0.  1.
         15    1    1    2    0    0 -0.73805094099E+00  0.12478988785E+01 -0.28749457352E+01  0.36776368476E+01  0.17770000000E+01 0.  1.
</event>
<event>
 6    1  0.3691007E-002  0.4627085E+02  0.7546771E-02  0.1314851E+00
        -11   -1    0    0    0    0  0.00000000000E+00  0.00000000000E+00  0.45600000000E+02  0.45600000000E+02  0.00000000000E+00 0. -1.
         11   -1    0    0    0    0 -0.00000000000E+00 -0.00000000000E+00 -0.45600000000E+02  0.45600000000E+02  0.00000000000E+00 0. -1.
        -11    1    1    2    0    0  0.97969771322E+00 -0.10635603842E+00  0.15195106900E+02  0.15227028367E+02  0.00000000000E+00 0. -1.
         11    1    1    2    0    0 -0.45370826420E+00 -0.12353028135E+01 -0.44909875599E+02  0.44929152569E+02  0.00000000000E+00 0. -1.
        -15    1    1    2    0    0  0.20303969886E+01  0.33859694955E+01  0.88856179355E+01  0.98842924102E+01  0.17770000000E+01 0.  1.
         15    1    1    2    0    0 -0.25563864376E+01 -0.20443106435E+01  0.20829150764E+02  0.21159526653E+02  0.17770000000E+01 0.  1.
</event>
<event>
 6    1  0.3691007E-002  0.4875551E+02  0.7546771E-02  0.1303339E+00
        -11   -1    0    0    0    0  0.00000000000E+00  0.00000000000E+00  0.45600000000E+02  0.45600000000E+02  0.00000000000E+00 0. -1.
         11   -1    0    0    0    0 -0.00000000000E+00 -0.00000000000E+00 -0.45600000000E+02  0.45600000000E+02  0.00000000000E+00 0.  1.
        -11    1    1    2    0    0 -0.18028307130E+01 -0.11133819507E+01  0.42391566852E+02  0.42444490315E+02  0.00000000000E+00 0. -1.
         11    1    1    2    0    0 -0.63440279535E+00  0.28548212389E+00 -0.39449614152E+02  0.39455747663E+02  0.00000000000E+00 0.  1.
        -15    1    1    2    0    0 -0.17631197156E+01 -0.34809807454E+00  0.14039614107E+01  0.28911243563E+01  0.17770000000E+01 0.  1.
         15    1    1    2    0    0  0.42003532239E+01  0.11759979014E+01 -0.43459141108E+01  0.64086376656E+01  0.17770000000E+01 0.  1.
</event>
<event>
 6    1  0.3691007E-002  0.4707502E+02  0.7546771E-02  0.1311036E+00
        -11   -1    0    0    0    0  0.00000000000E+00  0.00000000000E+00  0.45600000000E+02  0.45600000000E+02  0.00000000000E+00 0. -1.
         11   -1    0    0    0    0 -0.00000000000E+00 -0.00000000000E+00 -0.45600000000E+02  0.45600000000E+02  0.00000000000E+00 0. -1.
        -11    1    1    2    0    0 -0.42008698927E+00 -0.36462218715E+00  0.36816357139E+02  0.36820559140E+02  0.00000000000E+00 0. -1.
         11    1    1    2    0    0  0.38935396299E+01 -0.52930176842E-01 -0.43952834895E+02  0.44124983261E+02  0.00000000000E+00 0. -1.
        -15    1    1    2    0    0 -0.34068969048E+01 -0.24255780701E+00  0.73978053377E+01  0.83397262319E+01  0.17770000000E+01 0.  1.
         15    1    1    2    0    0 -0.66555735861E-01  0.66011017101E+00 -0.26132758076E+00  0.19147313671E+01  0.17770000000E+01 0. -1.
</event>
<event>
 6    1  0.3691007E-002  0.4612097E+02  0.7546771E-02  0.1315572E+00
        -11   -1    0    0    0    0  0.00000000000E+00  0.00000000000E+00  0.45600000000E+02  0.45600000000E+02  0.00000000000E+00 0.  1.
         11   -1    0    0    0    0 -0.00000000000E+00 -0.00000000000E+00 -0.45600000000E+02  0.45600000000E+02  0.00000000000E+00 0. -1.
        -11    1    1    2    0    0  0.80285610242E+00 -0.95571894883E+00  0.45061745634E+02  0.45079029451E+02  0.00000000000E+00 0.  1.
         11    1    1    2    0    0 -0.37027742673E+00 -0.15648411692E+01 -0.22820333437E+02  0.22876919623E+02  0.00000000000E+00 0. -1.
        -15    1    1    2    0    0 -0.46369963193E+00  0.39737220065E+01 -0.12813026398E+02  0.13540194179E+02  0.17770000000E+01 0. -1.
         15    1    1    2    0    0  0.31120956234E-01 -0.14531618885E+01 -0.94283857990E+01  0.97038567468E+01  0.17770000000E+01 0. -1.
</event>
<event>
 6    1  0.3691007E-002  0.4641280E+02  0.7546771E-02  0.1314171E+00
        -11   -1    0    0    0    0  0.00000000000E+00  0.00000000000E+00  0.45600000000E+02  0.45600000000E+02  0.00000000000E+00 0.  1.
         11   -1    0    0    0    0 -0.00000000000E+00 -0.00000000000E+00 -0.45600000000E+02  0.45600000000E+02  0.00000000000E+00 0. -1.
        -11    1    1    2    0    0 -0.22516493896E+00 -0.22861843814E+01  0.44728242693E+02  0.44787197196E+02  0.00000000000E+00 0.  1.
         11    1    1    2    0    0 -0.21943679365E+00 -0.77618327165E+00 -0.10325996018E+02  0.10357451749E+02  0.00000000000E+00 0. -1.
        -15    1    1    2    0    0  0.20579858404E+01 -0.29357886355E+01 -0.17711057225E+02  0.18157462313E+02  0.17770000000E+01 0. -1.
         15    1    1    2    0    0 -0.16133841078E+01  0.59981562885E+01 -0.16691189450E+02  0.17897888742E+02  0.17770000000E+01 0. -1.
</event>
<event>
 6    1  0.3691007E-002  0.4672819E+02  0.7546771E-02  0.1312670E+00
        -11   -1    0    0    0    0  0.00000000000E+00  0.00000000000E+00  0.45600000000E+02  0.45600000000E+02  0.00000000000E+00 0. -1.
         11   -1    0    0    0    0 -0.00000000000E+00 -0.00000000000E+00 -0.45600000000E+02  0.45600000000E+02  0.00000000000E+00 0.  1.
        -11    1    1    2    0    0  0.10708884280E+01 -0.30807227687E+01  0.37125373524E+02  0.37268364790E+02  0.00000000000E+00 0. -1.
         11    1    1    2    0    0 -0.38348900281E-02  0.11452075422E+01 -0.44457064328E+02  0.44471812237E+02  0.00000000000E+00 0.  1.
        -15    1    1    2    0    0 -0.17430603322E+01  0.61002519036E+00  0.10596532683E+01  0.27732623575E+01  0.17770000000E+01 0.  1.
         15    1    1    2    0    0  0.67600679428E+00  0.13254900361E+01  0.62720375351E+01  0.66865606154E+01  0.17770000000E+01 0. -1.
</event>
<event>
 6    1  0.3691007E-002  0.4614760E+02  0.7546771E-02  0.1315443E+00
        -11   -1    0    0    0    0  0.00000000000E+00  0.00000000000E+00  0.45600000000E+02  0.45600000000E+02  0.00000000000E+00 0. -1.
         11   -1    0    0    0    0 -0.00000000000E+00 -0.00000000000E+00 -0.45600000000E+02  0.45600000000E+02  0.00000000000E+00 0.  1.
        -11    1    1    2    0    0 -0.11601952755E+01 -0.17361619719E+01  0.36427874878E+02  0.36487674352E+02  0.00000000000E+00 0. -1.
         11    1    1    2    0    0  0.75434339892E+00 -0.52914345759E+00 -0.45042974899E+02  0.45052398543E+02  0.00000000000E+00 0.  1.
        -15    1    1    2    0    0  0.61065670157E+00  0.74701114575E+00  0.41100984108E+01  0.45805638524E+01  0.17770000000E+01 0. -1.
         15    1    1    2    0    0 -0.20480482495E+00  0.15182942837E+01  0.45050016095E+01  0.50793632524E+01  0.17770000000E+01 0.  1.
</event>
<event>
 6    1  0.3691007E-002  0.5537301E+02  0.7546771E-02  0.1276171E+00
        -11   -1    0    0    0    0  0.00000000000E+00  0.00000000000E+00  0.45600000000E+02  0.45600000000E+02  0.00000000000E+00 0.  1.
         11   -1    0    0    0    0 -0.00000000000E+00 -0.00000000000E+00 -0.45600000000E+02  0.45600000000E+02  0.00000000000E+00 0. -1.
        -11    1    1    2    0    0  0.60878758049E+00  0.11102167094E+01  0.35804611309E+02  0.35826992540E+02  0.00000000000E+00 0.  1.
         11    1    1    2    0    0 -0.22707064140E+00 -0.78183644437E+00 -0.24497485369E+02  0.24511010152E+02  0.00000000000E+00 0. -1.
        -15    1    1    2    0    0  0.35918575319E+01 -0.47544020524E+01 -0.19565971219E+02  0.20530239603E+02  0.17770000000E+01 0. -1.
         15    1    1    2    0    0 -0.39735744710E+01  0.44260217874E+01  0.82588452781E+01  0.10331757705E+02  0.17770000000E+01 0.  1.
</event>
<event>
 6    1  0.3691007E-002  0.4646968E+02  0.7546771E-02  0.1313899E+00
        -11   -1    0    0    0    0  0.00000000000E+00  0.00000000000E+00  0.45600000000E+02  0.45600000000E+02  0.00000000000E+00 0. -1.
         11   -1    0    0    0    0 -0.00000000000E+00 -0.00000000000E+00 -0.45600000000E+02  0.45600000000E+02  0.00000000000E+00 0. -1.
        -11    1    1    2    0    0  0.11236628499E+01 -0.11501485654E+01  0.44701408605E+02  0.44730318479E+02  0.00000000000E+00 0. -1.
         11    1    1    2    0    0  0.10163490728E+01 -0.79693477163E+00 -0.33624852188E+02  0.33649647177E+02  0.00000000000E+00 0. -1.
        -15    1    1    2    0    0 -0.27694948212E+01  0.97046115308E+00 -0.97021867213E+01  0.10290872295E+02  0.17770000000E+01 0.  1.
         15    1    1    2    0    0  0.62948289857E+00  0.97662218393E+00 -0.13743696965E+01  0.25291620495E+01  0.17770000000E+01 0. -1.
</event>
<event>
 6    1  0.3691007E-002  0.4616772E+02  0.7546771E-02  0.1315346E+00
        -11   -1    0    0    0    0  0.00000000000E+00  0.00000000000E+00  0.45600000000E+02  0.45600000000E+02  0.00000000000E+00 0. -1.
         11   -1    0    0    0    0 -0.00000000000E+00 -0.00000000000E+00 -0.45600000000E+02  0.45600000000E+02  0.00000000000E+00 0.  1.
        -11    1    1    2    0    0 -0.61006941750E+00  0.80732498582E+00  0.45020907047E+02  0.45032277643E+02  0.00000000000E+00 0. -1.
         11    1    1    2    0    0 -0.14456022919E+01 -0.22611332002E+01 -0.29020065478E+02  0.29143896268E+02  0.00000000000E+00 0.  1.
        -15    1    1    2    0    0  0.19052574487E+01 -0.58727884878E+00 -0.47323368179E+01  0.54339344080E+01  0.17770000000E+01 0. -1.
         15    1    1    2    0    0  0.15041426070E+00  0.20410870631E+01 -0.11268504751E+02  0.11589891681E+02  0.17770000000E+01 0.  1.
</event>
<event>
 6    1  0.3691007E-002  0.4021873E+02  0.7546771E-02  0.1346757E+00
        -11   -1    0    0    0    0  0.00000000000E+00  0.00000000000E+00  0.45600000000E+02  0.45600000000E+02  0.00000000000E+00 0.  1.
         11   -1    0    0    0    0 -0.00000000000E+00 -0.00000000000E+00 -0.45600000000E+02  0.45600000000E+02  0.00000000000E+00 0. -1.
        -11    1    1    2    0    0  0.12979959332E+00  0.80999412974E+00  0.40261641671E+02  0.40269997871E+02  0.00000000000E+00 0.  1.
         11    1    1    2    0    0 -0.28130282004E+01  0.97978930980E+00 -0.40121800001E+02  0.40232225268E+02  0.00000000000E+00 0. -1.
        -15    1    1    2    0    0  0.86323632536E+00 -0.14383120543E+00  0.46363134434E+01  0.50417254699E+01  0.17770000000E+01 0. -1.
         15    1    1    2    0    0  0.18199922817E+01 -0.16459522341E+01 -0.47761551141E+01  0.56560513909E+01  0.17770000000E+01 0. -1.
</event>
<event>
 6    1  0.3691007E-002  0.4666414E+02  0.7546771E-02  0.1312974E+00
        -11   -1    0    0    0    0  0.00000000000E+00  0.00000000000E+00  0.45600000000E+02  0.45600000000E+02  0.00000000000E+00 0.  1.
         11   -1    0    0    0    0 -0.00000000000E+00 -0.00000000000E+00 -0.45600000000E+02  0.45600000000E+02  0.00000000000E+00 0.  1.
        -11    1    1    2    0    0  0.43085348434E+00 -0.39309837942E+01  0.44359938459E+02  0.44535855313E+02  0.00000000000E+00 0.  1.
         11    1    1    2    0    0 -0.60545802660E+00 -0.72828972663E-01 -0.29719737148E+02  0.29725992997E+02  0.00000000000E+00 0.  1.
        -15    1    1    2    0    0  0.18190088744E+01  0.33981674050E+01 -0.13577820665E+02  0.14225725922E+02  0.17770000000E+01 0.  1.
         15    1    1    2    0    0 -0.16444043321E+01  0.60564536187E+00 -0.10623806456E+01  0.27124257682E+01  0.17770000000E+01 0. -1.
</event>
<event>
 6    1  0.3691007E-002  0.4720282E+02  0.7546771E-02  0.1310437E+00
        -11   -1    0    0    0    0  0.00000000000E+00  0.00000000000E+00  0.45600000000E+02  0.45600000000E+02  0.00000000000E+00 0.  1.
         11   -1    0    0    0    0 -0.00000000000E+00 -0.00000000000E+00 -0.45600000000E+02  0.45600000000E+02  0.00000000000E+00 0.  1.
        -11    1    1    2    0    0 -0.49311543632E+00  0.75154651266E+00  0.43987999553E+02  0.43997182747E+02  0.00000000000E+00 0.  1.
         11    1    1    2    0    0  0.25583548735E+00 -0.81826777704E+00 -0.27686064806E+02  0.27699335703E+02  0.00000000000E+00 0.  1.
        -15    1    1    2    0    0 -0.66765468324E+00 -0.40365251287E+01 -0.13335392431E+02  0.14061639954E+02  0.17770000000E+01 0.  1.
         15    1    1    2    0    0  0.90493463221E+00  0.41032463931E+01 -0.29665423159E+01  0.54418415967E+01  0.17770000000E+01 0. -1.
</event>
<event>
 6    1  0.3691007E-002  0.4797108E+02  0.7546771E-02  0.1306886E+00
        -11   -1    0    0    0    0  0.00000000000E+00  0.00000000000E+00  0.45600000000E+02  0.45600000000E+02  0.00000000000E+00 0. -1.
         11   -1    0    0    0    0 -0.00000000000E+00 -0.00000000000E+00 -0.45600000000E+02  0.45600000000E+02  0.00000000000E+00 0. -1.
        -11    1    1    2    0    0  0.15000422180E-01 -0.64875199849E+00  0.39342812785E+02  0.39348164151E+02  0.00000000000E+00 0. -1.
         11    1    1    2    0    0  0.10930483753E+00  0.10537295672E+01 -0.43215937418E+02  0.43228920186E+02  0.00000000000E+00 0. -1.
        -15    1    1    2    0    0 -0.14487920116E+00 -0.18974562731E+01  0.52955287999E+01  0.59009901340E+01  0.17770000000E+01 0. -1.
         15    1    1    2    0    0  0.20573941442E-01  0.14924787044E+01 -0.14224041672E+01  0.27219255289E+01  0.17770000000E+01 0. -1.
</event>
<event>
 6    1  0.3691007E-002  0.5070063E+02  0.7546771E-02  0.1294863E+00
        -11   -1    0    0    0    0  0.00000000000E+00  0.00000000000E+00  0.45600000000E+02  0.45600000000E+02  0.00000000000E+00 0.  1.
         11   -1    0    0    0    0 -0.00000000000E+00 -0.00000000000E+00 -0.45600000000E+02  0.45600000000E+02  0.00000000000E+00 0. -1.
        -11    1    1    2    0    0 -0.47476906054E+00 -0.55535116500E+00  0.40492778995E+02  0.40499370012E+02  0.00000000000E+00 0.  1.
         11    1    1    2    0    0 -0.51756458441E+01  0.62083654091E+00 -0.29665266686E+02  0.30119774161E+02  0.00000000000E+00 0. -1.
        -15    1    1    2    0    0 -0.57181436931E+01  0.19238589082E+00 -0.35594126911E+01  0.69685957934E+01  0.17770000000E+01 0. -1.
         15    1    1    2    0    0  0.11368558598E+02 -0.25787126674E+00 -0.72680996178E+01  0.13612260034E+02  0.17770000000E+01 0.  1.
</event>
<event>
 6    1  0.3691007E-002  0.4710723E+02  0.7546771E-02  0.1310885E+00
        -11   -1    0    0    0    0  0.00000000000E+00  0.00000000000E+00  0.45600000000E+02  0.45600000000E+02  0.00000000000E+00 0.  1.
         11   -1    0    0    0    0 -0.00000000000E+00 -0.00000000000E+00 -0.45600000000E+02  0.45600000000E+02  0.00000000000E+00 0. -1.
        -11    1    1    2    0    0 -0.42021743039E+01  0.18216947696E+01  0.43854256453E+02  0.44092773214E+02  0.00000000000E+00 0.  1.
         11    1    1    2    0    0  0.23854250555E+01 -0.24621705005E+01 -0.30993345165E+02  0.31182366504E+02  0.00000000000E+00 0. -1.
        -15    1    1    2    0    0  0.36546385698E+01 -0.71681304497E-01 -0.12622077215E+02  0.13260319887E+02  0.17770000000E+01 0.  1.
         15    1    1    2    0    0 -0.18378893214E+01  0.71215703548E+00 -0.23883407261E+00  0.26645403947E+01  0.17770000000E+01 0.  1.
</event>
<event>
 6    1  0.3691007E-002  0.4603973E+02  0.7546771E-02  0.1315964E+00
        -11   -1    0    0    0    0  0.00000000000E+00  0.00000000000E+00  0.45600000000E+02  0.45600000000E+02  0.00000000000E+00 0. -1.
         11   -1    0    0    0    0 -0.00000000000E+00 -0.00000000000E+00 -0.45600000000E+02  0.45600000000E+02  0.00000000000E+00 0. -1.
        -11    1    1    2    0    0 -0.31261880600E+00  0.40439306145E+00  0.21520169058E+02  0.21526238421E+02  0.00000000000E+00 0. -1.
         11    1    1    2    0    0 -0.17690570401E+01  0.12802344286E+01 -0.45107438766E+02  0.45160265666E+02  0.00000000000E+00 0. -1.
        -15    1    1    2    0    0  0.16804125090E+01 -0.21452548530E+01  0.21329057340E+02  0.21575734532E+02  0.17770000000E+01 0. -1.
         15    1    1    2    0    0  0.40126333704E+00  0.46062736297E+00  0.22582123678E+01  0.29377613809E+01  0.17770000000E+01 0.  1.
</event>
<event>
 6    1  0.3691007E-002  0.4773746E+02  0.7546771E-02  0.1307958E+00
        -11   -1    0    0    0    0  0.00000000000E+00  0.00000000000E+00  0.45600000000E+02  0.45600000000E+02  0.00000000000E+00 0. -1.
         11   -1    0    0    0    0 -0.00000000000E+00 -0.00000000000E+00 -0.45600000000E+02  0.45600000000E+02  0.00000000000E+00 0.  1.
        -11    1    1    2    0    0  0.93660254524E-01  0.69393879206E+00  0.15008849005E+02  0.15025174599E+02  0.00000000000E+00 0. -1.
         11    1    1    2    0    0 -0.35737902703E+01  0.15261085597E+01 -0.43288467973E+02  0.43462540695E+02  0.00000000000E+00 0.  1.
        -15    1    1    2    0    0  0.12769599395E+01  0.15414750131E+00 -0.15300626385E+01  0.26745483389E+01  0.17770000000E+01 0.  1.
         15    1    1    2    0    0  0.22031700762E+01 -0.23741948531E+01  0.29809681606E+02  0.30037736367E+02  0.17770000000E+01 0. -1.
</event>
<event>
 6    1  0.3691007E-002  0.4632018E+02  0.7546771E-02  0.1314614E+00
        -11   -1    0    0    0    0  0.00000000000E+00  0.00000000000E+00  0.45600000000E+02  0.45600000000E+02  0.00000000000E+00 0.  1.
         11   -1    0    0    0    0 -0.00000000000E+00 -0.00000000000E+00 -0.45600000000E+02  0.45600000000E+02  0.00000000000E+00 0.  1.
        -11    1    1    2    0    0 -0.51412566934E+00 -0.10080582590E+01  0.19453632037E+02  0.19486516007E+02  0.00000000000E+00 0.  1.
         11    1    1    2    0    0  0.17711728399E+01  0.41659515459E+00 -0.44842918097E+02  0.44879816268E+02  0.00000000000E+00 0.  1.
        -15    1    1    2    0    0  0.29258151623E+01  0.17766686612E+01  0.13801367919E+02  0.14330123214E+02  0.17770000000E+01 0.  1.
         15    1    1    2    0    0 -0.41828623328E+01 -0.11852055568E+01  0.11587918141E+02  0.12503544511E+02  0.17770000000E+01 0.  1.
</event>
<event>
 6    1  0.3691007E-002  0.3695038E+02  0.7546771E-02  0.1366831E+00
        -11   -1    0    0    0    0  0.00000000000E+00  0.00000000000E+00  0.45600000000E+02  0.45600000000E+02  0.00000000000E+00 0. -1.
         11   -1    0    0    0    0 -0.00000000000E+00 -0.00000000000E+00 -0.45600000000E+02  0.45600000000E+02  0.00000000000E+00 0. -1.
        -11    1    1    2    0    0  0.17599993186E+01 -0.34980438896E+01  0.37580156044E+02  0.37783621279E+02  0.00000000000E+00 0. -1.
         11    1    1    2    0    0  0.24068389310E+01  0.21311676918E+01 -0.36118783577E+02  0.36261567485E+02  0.00000000000E+00 0. -1.
        -15    1    1    2    0    0 -0.18445598133E+01  0.40928176761E+01 -0.80857895333E+01  0.94176047279E+01  0.17770000000E+01 0. -1.
         15    1    1    2    0    0 -0.23222784363E+01 -0.27259414783E+01  0.66244170662E+01  0.77372065079E+01  0.17770000000E+01 0.  1.
</event>
<event>
 6    1  0.3691007E-002  0.4803508E+02  0.7546771E-02  0.1306594E+00
        -11   -1    0    0    0    0  0.00000000000E+00  0.00000000000E+00  0.45600000000E+02  0.45600000000E+02  0.00000000000E+00 0. -1.
         11   -1    0    0    0    0 -0.00000000000E+00 -0.00000000000E+00 -0.45600000000E+02  0.45600000000E+02  0.00000000000E+00 0.  1.
        -11    1    1    2    0    0  0.36266722409E+00 -0.54568436109E+00  0.41007448887E+02  0.41012682955E+02  0.00000000000E+00 0. -1.
         11    1    1    2    0    0  0.55425131287E+00  0.36417600929E+00 -0.43159828980E+02  0.43164923911E+02  0.00000000000E+00 0.  1.
        -15    1    1    2    0    0 -0.72164842126E+00  0.23567180176E+01  0.28015579006E+01  0.41329592218E+01  0.17770000000E+01 0. -1.
         15    1    1    2    0    0 -0.19527011570E+00 -0.21752096658E+01 -0.64917780749E+00  0.28894339123E+01  0.17770000000E+01 0. -1.
</event>
<event>
 6    1  0.3691007E-002  0.2754104E+02  0.7546771E-02  0.1441465E+00
        -11   -1    0    0    0    0  0.00000000000E+00  0.00000000000E+00  0.45600000000E+02  0.45600000000E+02  0.00000000000E+00 0.  1.
         11   -1    0    0    0    0 -0.00000000000E+00 -0.00000000000E+00 -0.45600000000E+02  0.45600000000E+02  0.00000000000E+00 0. -1.
        -11    1    1    2    0    0 -0.29148864980E+01  0.18991402528E+00  0.41883870164E+02  0.41985607183E+02  0.00000000000E+00 0.  1.
         11    1    1    2    0    0  0.23525212958E+01  0.59170046212E+00 -0.16417016460E+02  0.16595267257E+02  0.00000000000E+00 0. -1.
        -15    1    1    2    0    0 -0.93332081619E+01  0.17692442100E+01 -0.93083710625E+01  0.13417991672E+02  0.17770000000E+01 0.  1.
         15    1    1    2    0    0  0.98955733641E+01 -0.25508586974E+01 -0.16158482641E+02  0.19201133888E+02  0.17770000000E+01 0. -1.
</event>
<event>
 6    1  0.3691007E-002  0.4760375E+02  0.7546771E-02  0.1308575E+00
        -11   -1    0    0    0    0  0.00000000000E+00  0.00000000000E+00  0.45600000000E+02  0.45600000000E+02  0.00000000000E+00 0.  1.
         11   -1    0    0    0    0 -0.00000000000E+00 -0.00000000000E+00 -0.45600000000E+02  0.45600000000E+02  0.00000000000E+00 0.  1.
        -11    1    1    2    0    0  0.68411868024E+00  0.34234184769E+00  0.43589535156E+02  0.43596247447E+02  0.00000000000E+00 0.  1.
         11    1    1    2    0    0  0.59563018023E+00 -0.75407482432E-01 -0.38727972692E+02  0.38732626176E+02  0.00000000000E+00 0.  1.
        -15    1    1    2    0    0 -0.10105452992E+01 -0.11461399412E+01  0.10955093122E+01  0.25870269074E+01  0.17770000000E+01 0.  1.
         15    1    1    2    0    0 -0.26920356131E+00  0.87920557591E+00 -0.59570717762E+01  0.62840994701E+01  0.17770000000E+01 0.  1.
</event>
<event>
 6    1  0.3691007E-002  0.4285263E+02  0.7546771E-02  0.1332124E+00
        -11   -1    0    0    0    0  0.00000000000E+00  0.00000000000E+00  0.45600000000E+02  0.45600000000E+02  0.00000000000E+00 0.  1.
         11   -1    0    0    0    0 -0.00000000000E+00 -0.00000000000E+00 -0.45600000000E+02  0.45600000000E+02  0.00000000000E+00 0. -1.
        -11    1    1    2    0    0 -0.16040502934E+00 -0.56632153921E+00  0.42804456955E+02  0.42808503654E+02  0.00000000000E+00 0.  1.
         11    1    1    2    0    0 -0.11024411314E+01 -0.33880425942E+00 -0.42895393498E+02  0.42910895448E+02  0.00000000000E+00 0. -1.
        -15    1    1    2    0    0  0.23940183275E+01  0.32681035000E+00 -0.82685666566E+00  0.31111974709E+01  0.17770000000E+01 0. -1.
         15    1    1    2    0    0 -0.11311721668E+01  0.57831544863E+00  0.91779320801E+00  0.23694034274E+01  0.17770000000E+01 0. -1.
</event>
<event>
 6    1  0.3691007E-002  0.4705012E+02  0.7546771E-02  0.1311152E+00
        -11   -1    0    0    0    0  0.00000000000E+00  0.00000000000E+00  0.45600000000E+02  0.45600000000E+02  0.00000000000E+00 0. -1.
         11   -1    0    0    0    0 -0.00000000000E+00 -0.00000000000E+00 -0.45600000000E+02  0.45600000000E+02  0.00000000000E+00 0. -1.
        -11    1    1    2    0    0  0.55829006407E+00  0.66650380183E+00  0.44141315295E+02  0.44149876909E+02  0.00000000000E+00 0. -1.
         11    1    1    2    0    0 -0.75927860275E+00  0.75245817365E+00 -0.24090608229E+02  0.24114313221E+02  0.00000000000E+00 0. -1.
        -15    1    1    2    0    0  0.62593836841E+00  0.27805338357E+01 -0.17236109459E+02  0.17560306533E+02  0.17770000000E+01 0. -1.
         15    1    1    2    0    0 -0.42494982973E+00 -0.41994958112E+01 -0.28145976077E+01  0.53755033364E+01  0.17770000000E+01 0. -1.
</event>
<event>
 6    1  0.3691007E-002  0.3937164E+02  0.7546771E-02  0.1351741E+00
        -11   -1    0    0    0    0  0.00000000000E+00  0.00000000000E+00  0.45600000000E+02  0.45600000000E+02  0.00000000000E+00 0. -1.
         11   -1    0    0    0    0 -0.00000000000E+00 -0.00000000000E+00 -0.45600000000E+02  0.45600000000E+02  0.00000000000E+00 0. -1.
        -11    1    1    2    0    0 -0.73383257385E+00 -0.40484975500E+01  0.37936865855E+02  0.38159332195E+02  0.00000000000E+00 0. -1.
         11    1    1    2    0    0  0.37278970062E+01  0.40031831267E+00 -0.40597348897E+02  0.40770114156E+02  0.00000000000E+00 0. -1.
        -15    1    1    2    0    0  0.28540448163E+01  0.35695853971E+00  0.39611629499E+01  0.52078337270E+01  0.17770000000E+01 0.  1.
         15    1    1    2    0    0 -0.58481092486E+01  0.32912206977E+01 -0.13006799079E+01  0.70627199214E+01  0.17770000000E+01 0. -1.
</event>
<event>
 6    1  0.3691007E-002  0.2861909E+02  0.7546771E-02  0.1431242E+00
        -11   -1    0    0    0    0  0.00000000000E+00  0.00000000000E+00  0.45600000000E+02  0.45600000000E+02  0.00000000000E+00 0. -1.
         11   -1    0    0    0    0 -0.00000000000E+00 -0.00000000000E+00 -0.45600000000E+02  0.45600000000E+02  0.00000000000E+00 0.  1.
        -11    1    1    2    0    0 -0.70055942529E+00  0.44632970994E+00  0.37505230063E+02  0.37514427568E+02  0.00000000000E+00 0. -1.
         11    1    1    2    0    0  0.71035292446E+00  0.58773164256E+00 -0.15780810652E+02  0.15807720095E+02  0.00000000000E+00 0.  1.
        -15    1    1    2    0    0 -0.86711149527E+01  0.10355033463E+02 -0.25043217189E+01  0.13850787299E+02  0.17770000000E+01 0.  1.
         15    1    1    2    0    0  0.86613214535E+01 -0.11389094815E+02 -0.19220097692E+02  0.24027065038E+02  0.17770000000E+01 0. -1.
</event>
<event>
 6    1  0.3691007E-002  0.4794625E+02  0.7546771E-02  0.1307000E+00
        -11   -1    0    0    0    0  0.00000000000E+00  0.00000000000E+00  0.45600000000E+02  0.45600000000E+02  0.00000000000E+00 0.  1.
         11   -1    0    0    0    0 -0.00000000000E+00 -0.00000000000E+00 -0.45600000000E+02  0.45600000000E+02  0.00000000000E+00 0.  1.
        -11    1    1    2    0    0 -0.13892291265E+01 -0.28783422781E+00  0.43230474899E+02  0.43253748579E+02  0.00000000000E+00 0.  1.
         11    1    1    2    0    0  0.18259901018E+01 -0.49962897795E+00 -0.41481622055E+02  0.41524797860E+02  0.00000000000E+00 0.  1.
        -15    1    1    2    0    0  0.18447383891E+01  0.83671287781E+00 -0.22196446640E+01  0.34910885979E+01  0.17770000000E+01 0. -1.
         15    1    1    2    0    0 -0.22814993644E+01 -0.49249672047E-01  0.47079182008E+00  0.29303649633E+01  0.17770000000E+01 0.  1.
</event>
<event>
 6    1  0.3691007E-002  0.5111909E+02  0.7546771E-02  0.1293096E+00
        -11   -1    0    0    0    0  0.00000000000E+00  0.00000000000E+00  0.45600000000E+02  0.45600000000E+02  0.00000000000E+00 0. -1.
         11   -1    0    0    0    0 -0.00000000000E+00 -0.00000000000E+00 -0.45600000000E+02  0.45600000000E+02  0.00000000000E+00 0.  1.
        -11    1    1    2    0    0 -0.18473213223E+01  0.16376068902E+00  0.35679738784E+02  0.35727904687E+02  0.00000000000E+00 0. -1.
         11    1    1    2    0    0  0.59645671458E+00  0.51580606324E+00 -0.40073154980E+02  0.40080912746E+02  0.00000000000E+00 0.  1.
        -15    1    1    2    0    0  0.25300959625E+01 -0.24531475337E+01 -0.45448088807E+01  0.60193301258E+01  0.17770000000E+01 0.  1.
         15    1    1    2    0    0 -0.12792313548E+01  0.17735807814E+01  0.89382250767E+01  0.93718524407E+01  0.17770000000E+01 0. -1.
</event>
<event>
 6    1  0.3691007E-002  0.4672168E+02  0.7546771E-02  0.1312701E+00
        -11   -1    0    0    0    0  0.00000000000E+00  0.00000000000E+00  0.45600000000E+02  0.45600000000E+02  0.00000000000E+00 0.  1.
         11   -1    0    0    0    0 -0.00000000000E+00 -0.00000000000E+00 -0.45600000000E+02  0.45600000000E+02  0.00000000000E+00 0.  1.
        -11    1    1    2    0    0 -0.67439199292E+00  0.29631864812E-01  0.35873931897E+02  0.35880282501E+02  0.00000000000E+00 0.  1.
         11    1    1    2    0    0 -0.10035550724E+01 -0.12584234138E+00 -0.44466823571E+02  0.44478324581E+02  0.00000000000E+00 0.  1.
        -15    1    1    2    0    0 -0.70515612833E+00  0.85800608662E+00  0.71492525306E+01  0.74500308963E+01  0.17770000000E+01 0.  1.
         15    1    1    2    0    0  0.23831031937E+01 -0.76179561005E+00  0.14436391434E+01  0.33913620213E+01  0.17770000000E+01 0.  1.
</event>
<event>
 6    1  0.3691007E-002  0.4712213E+02  0.7546771E-02  0.1310815E+00
        -11   -1    0    0    0    0  0.00000000000E+00  0.00000000000E+00  0.45600000000E+02  0.45600000000E+02  0.00000000000E+00 0.  1.
         11   -1    0    0    0    0 -0.00000000000E+00 -0.00000000000E+00 -0.45600000000E+02  0.45600000000E+02  0.00000000000E+00 0.  1.
        -11    1    1    2    0    0 -0.26964348725E+01 -0.33168081174E+00  0.43994068591E+02  0.44077872503E+02  0.00000000000E+00 0.  1.
         11    1    1    2    0    0  0.17592637560E+01  0.15452348002E+00 -0.38911900144E+02  0.38951955783E+02  0.00000000000E+00 0.  1.
        -15    1    1    2    0    0  0.30487892928E+01  0.59565896351E-01 -0.21074572811E+01  0.41106896550E+01  0.17770000000E+01 0.  1.
         15    1    1    2    0    0 -0.21116181763E+01  0.11759143537E+00 -0.29747111662E+01  0.40594820594E+01  0.17770000000E+01 0.  1.
</event>
<event>
 6    1  0.3691007E-002  0.4631150E+02  0.7546771E-02  0.1314656E+00
        -11   -1    0    0    0    0  0.00000000000E+00  0.00000000000E+00  0.45600000000E+02  0.45600000000E+02  0.00000000000E+00 0.  1.
         11   -1    0    0    0    0 -0.00000000000E+00 -0.00000000000E+00 -0.45600000000E+02  0.45600000000E+02  0.00000000000E+00 0. -1.
        -11    1    1    2    0    0 -0.47649758637E+00  0.80740660978E+00  0.30345362520E+02  0.30359841598E+02  0.00000000000E+00 0.  1.
         11    1    1    2    0    0  0.10278584580E+01  0.32807737072E+00 -0.44875526538E+02  0.44888495295E+02  0.00000000000E+00 0. -1.
        -15    1    1    2    0    0  0.12225312364E+01 -0.19958750652E+00  0.14661626295E+01  0.26156795776E+01  0.17770000000E+01 0. -1.
         15    1    1    2    0    0 -0.17738921080E+01 -0.93589647398E+00  0.13064001389E+02  0.13335983530E+02  0.17770000000E+01 0. -1.
</event>
<event>
 6    1  0.3691007E-002  0.4681854E+02  0.7546771E-02  0.1312243E+00
        -11   -1    0    0    0    0  0.00000000000E+00  0.00000000000E+00  0.45600000000E+02  0.45600000000E+02  0.00000000000E+00 0.  1.
         11   -1    0    0    0    0 -0.00000000000E+00 -0.00000000000E+00 -0.45600000000E+02  0.45600000000E+02  0.00000000000E+00 0.  1.
        -11    1    1    2    0    0  0.17665321558E+01 -0.80853014160E-01  0.44346212795E+02  0.44381457416E+02  0.00000000000E+00 0.  1.
         11    1    1    2    0    0  0.15480040487E+01  0.20773255461E+01 -0.34980078879E+02  0.35075882261E+02  0.00000000000E+00 0.  1.
        -15    1    1    2    0    0 -0.18769331504E+01 -0.17483283421E+01 -0.88531609655E+01  0.93869972901E+01  0.17770000000E+01 0.  1.
         15    1    1    2    0    0 -0.14376030541E+01 -0.24814418980E+00 -0.51297295014E+00  0.23556630336E+01  0.17770000000E+01 0. -1.
</event>
<event>
 6    1  0.3691007E-002  0.4793854E+02  0.7546771E-02  0.1307035E+00
        -11   -1    0    0    0    0  0.00000000000E+00  0.00000000000E+00  0.45600000000E+02  0.45600000000E+02  0.00000000000E+00 0. -1.
         11   -1    0    0    0    0 -0.00000000000E+00 -0.00000000000E+00 -0.45600000000E+02  0.45600000000E+02  0.00000000000E+00 0.  1.
        -11    1    1    2    0    0 -0.81509337204E+00  0.49128510310E+00  0.39072127980E+02  0.39083716854E+02  0.00000000000E+00 0. -1.
         11    1    1    2    0    0  0.16541529133E+01 -0.14447189125E+00 -0.43229579738E+02  0.43261456960E+02  0.00000000000E+00 0.  1.
        -15    1    1    2    0    0  0.28385977800E+01  0.71276013148E+00  0.27973572937E+01  0.44213800098E+01  0.17770000000E+01 0. -1.
         15    1    1    2    0    0 -0.36776573213E+01 -0.10595733433E+01  0.13600944643E+01  0.44334461759E+01  0.17770000000E+01 0. -1.
</event>
<event>
 6    1  0.3691007E-002  0.4718720E+02  0.7546771E-02  0.1310510E+00
        -11   -1    0    0    0    0  0.00000000000E+00  0.00000000000E+00  0.45600000000E+02  0.45600000000E+02  0.00000000000E+00 0.  1.
         11   -1    0    0    0    0 -0.00000000000E+00 -0.00000000000E+00 -0.45600000000E+02  0.45600000000E+02  0.00000000000E+00 0. -1.
        -11    1    1    2    0    0  0.22981561389E+01  0.50879314194E+00  0.43949814001E+02  0.44012799761E+02  0.00000000000E+00 0.  1.
         11    1    1    2    0    0 -0.32695031937E+01  0.15336817865E+01 -0.41587107576E+02  0.41743614452E+02  0.00000000000E+00 0. -1.
        -15    1    1    2    0    0  0.16032417807E+01 -0.82555921851E+00 -0.63236707167E+00  0.26095113228E+01  0.17770000000E+01 0. -1.
         15    1    1    2    0    0 -0.63189472591E+00 -0.12169157099E+01 -0.17303393536E+01  0.28340744641E+01  0.17770000000E+01 0.  1.
</event>
<event>
 6    1  0.3691007E-002  0.4944576E+02  0.7546771E-02  0.1300280E+00
        -11   -1    0    0    0    0  0.00000000000E+00  0.00000000000E+00  0.45600000000E+02  0.45600000000E+02  0.00000000000E+00 0.  1.
         11   -1    0    0    0    0 -0.00000000000E+00 -0.00000000000E+00 -0.45600000000E+02  0.45600000000E+02  0.00000000000E+00 0. -1.
        -11    1    1    2    0    0  0.59166248139E+00 -0.99853324363E+00  0.41738100434E+02  0.41754235246E+02  0.00000000000E+00 0.  1.
         11    1    1    2    0    0 -0.51482232986E+00  0.22085375509E+00 -0.36157304038E+02  0.36161643404E+02  0.00000000000E+00 0. -1.
        -15    1    1    2    0    0  0.38988671266E+01 -0.19524992209E+01 -0.65368299334E+01  0.80561338530E+01  0.17770000000E+01 0.  1.
         15    1    1    2    0    0 -0.39757072781E+01  0.27301787094E+01  0.95603353687E+00  0.52279874971E+01  0.17770000000E+01 0.  1.
</event>
<event>
 6    1  0.3691007E-002  0.5823690E+02  0.7546771E-02  0.1265725E+00
        -11   -1    0    0    0    0  0.00000000000E+00  0.00000000000E+00  0.45600000000E+02  0.45600000000E+02  0.00000000000E+00 0. -1.
         11   -1    0    0    0    0 -0.00000000000E+00 -0.00000000000E+00 -0.45600000000E+02  0.45600000000E+02  0.00000000000E+00 0.  1.
        -11    1    1    2    0    0  0.11555555569E+01  0.17155091130E+01  0.28173257088E+02  0.28249083084E+02  0.00000000000E+00 0. -1.
         11    1    1    2    0    0 -0.38567117170E+01  0.36926725222E+01 -0.32527766934E+02  0.32963095688E+02  0.00000000000E+00 0.  1.
        -15    1    1    2    0    0  0.13328711877E+01  0.26150444507E+01  0.15611141176E+02  0.15983756157E+02  0.17770000000E+01 0. -1.
         15    1    1    2    0    0  0.13682849724E+01 -0.80232260859E+01 -0.11256631330E+02  0.14004065070E+02  0.17770000000E+01 0.  1.
</event>
<event>
 6    1  0.3691007E-002  0.4673426E+02  0.7546771E-02  0.1312641E+00
        -11   -1    0    0    0    0  0.00000000000E+00  0.00000000000E+00  0.45600000000E+02  0.45600000000E+02  0.00000000000E+00 0.  1.
         11   -1    0    0    0    0 -0.00000000000E+00 -0.00000000000E+00 -0.45600000000E+02  0.45600000000E+02  0.00000000000E+00 0.  1.
        -11    1    1    2    0    0 -0.19698359312E+01  0.33747215165E+00  0.33727095394E+02  0.33786256152E+02  0.00000000000E+00 0.  1.
         11    1    1    2    0    0 -0.71525525415E+00 -0.47577684868E+01 -0.44204688432E+02  0.44465744460E+02  0.00000000000E+00 0.  1.
        -15    1    1    2    0    0  0.72954564416E+00 -0.11726572972E+00  0.11441882004E+01  0.22389470151E+01  0.17770000000E+01 0. -1.
         15    1    1    2    0    0  0.19555455412E+01  0.45375620648E+01  0.93334048374E+01  0.10709052372E+02  0.17770000000E+01 0.  1.
</event>
<event>
 6    1  0.3691007E-002  0.4638962E+02  0.7546771E-02  0.1314282E+00
        -11   -1    0    0    0    0  0.00000000000E+00  0.00000000000E+00  0.45600000000E+02  0.45600000000E+02  0.00000000000E+00 0. -1.
         11   -1    0    0    0    0 -0.00000000000E+00 -0.00000000000E+00 -0.45600000000E+02  0.45600000000E+02  0.00000000000E+00 0. -1.
        -11    1    1    2    0    0 -0.34006906457E+00  0.46907271901E+00  0.29891704919E+02  0.29897319263E+02  0.00000000000E+00 0. -1.
         11    1    1    2    0    0 -0.20237766190E+01 -0.40916136730E+00 -0.44762789024E+02  0.44810382346E+02  0.00000000000E+00 0. -1.
        -15    1    1    2    0    0  0.83111810138E+00  0.25788065533E+01  0.97295579219E+01  0.10254902578E+02  0.17770000000E+01 0. -1.
         15    1    1    2    0    0  0.15327275822E+01 -0.26387179050E+01  0.51415261830E+01  0.62373958119E+01  0.17770000000E+01 0.  1.
</event>
<event>
 6    1  0.3691007E-002  0.4733705E+02  0.7546771E-02  0.1309811E+00
        -11   -1    0    0    0    0  0.00000000000E+00  0.00000000000E+00  0.45600000000E+02  0.45600000000E+02  0.00000000000E+00 0. -1.
         11   -1    0    0    0    0 -0.00000000000E+00 -0.00000000000E+00 -0.45600000000E+02  0.45600000000E+02  0.00000000000E+00 0.  1.
        -11    1    1    2    0    0 -0.11946144855E+01 -0.10613401541E+01  0.34081666745E+02  0.34119108353E+02  0.00000000000E+00 0. -1.
         11    1    1    2    0    0  0.22284287488E+01  0.32147638091E+01 -0.43688189635E+02  0.43862951503E+02  0.00000000000E+00 0.  1.
        -15    1    1    2    0    0 -0.45063702757E+01 -0.17244560711E+01  0.50985991137E+01  0.72411714333E+01  0.17770000000E+01 0. -1.
         15    1    1    2    0    0  0.34725560125E+01 -0.42896758381E+00  0.45079237760E+01  0.59767687104E+01  0.17770000000E+01 0.  1.
</event>
<event>
 6    1  0.3691007E-002  0.4785558E+02  0.7546771E-02  0.1307415E+00
        -11   -1    0    0    0    0  0.00000000000E+00  0.00000000000E+00  0.45600000000E+02  0.45600000000E+02  0.00000000000E+00 0.  1.
         11   -1    0    0    0    0 -0.00000000000E+00 -0.00000000000E+00 -0.45600000000E+02  0.45600000000E+02  0.00000000000E+00 0. -1.
        -11    1    1    2    0    0 -0.44219315509E+01 -0.33104449599E+01  0.38569024743E+02  0.38962574275E+02  0.00000000000E+00 0.  1.
         11    1    1    2    0    0  0.79333666514E+00  0.32456929413E+00 -0.43335943938E+02  0.43344420232E+02  0.00000000000E+00 0. -1.
        -15    1    1    2    0    0  0.42212959589E+01  0.95670076720E+00  0.35594391200E+01  0.58789413825E+01  0.17770000000E+01 0.  1.
         15    1    1    2    0    0 -0.59270107318E+00  0.20291748985E+01  0.12074800746E+01  0.30140641104E+01  0.17770000000E+01 0.  1.
</event>
<event>
 6    1  0.3691007E-002  0.5081642E+02  0.7546771E-02  0.1294372E+00
        -11   -1    0    0    0    0  0.00000000000E+00  0.00000000000E+00  0.45600000000E+02  0.45600000000E+02  0.00000000000E+00 0.  1.
         11   -1    0    0    0    0 -0.00000000000E+00 -0.00000000000E+00 -0.45600000000E+02  0.45600000000E+02  0.00000000000E+00 0.  1.
        -11    1    1    2    0    0  0.10747089749E+00  0.48998936605E+00  0.28778150532E+02  0.28782522260E+02  0.00000000000E+00 0.  1.
         11    1    1    2    0    0 -0.12957990891E+00 -0.69660110363E+00 -0.40377368040E+02  0.40383584461E+02  0.00000000000E+00 0.  1.
        -15    1    1    2    0    0  0.84861156050E+01  0.11716891399E+01  0.98192297816E+01  0.13151502424E+02  0.17770000000E+01 0. -1.
         15    1    1    2    0    0 -0.84640065936E+01 -0.96507740237E+00  0.17799877264E+01  0.88823908558E+01  0.17770000000E+01 0.  1.
</event>
<event>
 6    1  0.3691007E-002  0.4819919E+02  0.7546771E-02  0.1305847E+00
        -11   -1    0    0    0    0  0.00000000000E+00  0.00000000000E+00  0.45600000000E+02  0.45600000000E+02  0.00000000000E+00 0. -1.
         11   -1    0    0    0    0 -0.00000000000E+00 -0.00000000000E+00 -0.45600000000E+02  0.45600000000E+02  0.00000000000E+00 0.  1.
        -11    1    1    2    0    0 -0.36067206196E+00 -0.59206067800E+00  0.42995218527E+02  0.43000807392E+02  0.00000000000E+00 0. -1.
         11    1    1    2    0    0  0.23871541220E+01 -0.28123330942E+01 -0.16281162905E+02  0.16693830830E+02  0.00000000000E+00 0.  1.
        -15    1    1    2    0    0 -0.88289760545E+01  0.68108704123E+00 -0.16496176521E+02  0.18806814364E+02  0.17770000000E+01 0. -1.
         15    1    1    2    0    0  0.68024939945E+01  0.27233067310E+01 -0.10217879101E+02  0.12698547414E+02  0.17770000000E+01 0.  1.
</event>
<event>
 6    1  0.3691007E-002  0.4578872E+02  0.7546771E-02  0.1317181E+00
        -11   -1    0    0    0    0  0.00000000000E+00  0.00000000000E+00  0.45600000000E+02  0.45600000000E+02  0.00000000000E+00 0.  1.
         11   -1    0    0    0    0 -0.00000000000E+00 -0.00000000000E+00 -0.45600000000E+02  0.45600000000E+02  0.00000000000E+00 0. -1.
        -11    1    1    2    0    0  0.22605294300E+00  0.52229893383E+00  0.20785982945E+02  0.20793772700E+02  0.00000000000E+00 0.  1.
         11    1    1    2    0    0 -0.79318648205E+00  0.20194790522E+01 -0.45359417200E+02  0.45411277996E+02  0.00000000000E+00 0. -1.
        -15    1    1    2    0    0  0.18394285609E+00 -0.10047972613E+01  0.83551558156E+01  0.86028954552E+01  0.17770000000E+01 0. -1.
         15    1    1    2    0    0  0.38319068296E+00 -0.15369807247E+01  0.16218278439E+02  0.16392053849E+02  0.17770000000E+01 0.  1.
</event>
<event>
 6    1  0.3691007E-002  0.4724043E+02  0.7546771E-02  0.1310262E+00
        -11   -1    0    0    0    0  0.00000000000E+00  0.00000000000E+00  0.45600000000E+02  0.45600000000E+02  0.00000000000E+00 0.  1.
         11   -1    0    0    0    0 -0.00000000000E+00 -0.00000000000E+00 -0.45600000000E+02  0.45600000000E+02  0.00000000000E+00 0.  1.
        -11    1    1    2    0    0 -0.65491519576E+00  0.31843824569E+00  0.24174502036E+02  0.24185468065E+02  0.00000000000E+00 0.  1.
         11    1    1    2    0    0  0.13524736336E+00  0.14089904274E+01 -0.43936773785E+02  0.43959568202E+02  0.00000000000E+00 0.  1.
        -15    1    1    2    0    0  0.22388152771E+01 -0.52690477394E+01  0.16746517756E+02  0.17787038648E+02  0.17770000000E+01 0.  1.
         15    1    1    2    0    0 -0.17191474447E+01  0.35416190663E+01  0.30157539931E+01  0.52679250844E+01  0.17770000000E+01 0. -1.
</event>
<event>
 6    1  0.3691007E-002  0.4937126E+02  0.7546771E-02  0.1300607E+00
        -11   -1    0    0    0    0  0.00000000000E+00  0.00000000000E+00  0.45600000000E+02  0.45600000000E+02  0.00000000000E+00 0.  1.
         11   -1    0    0    0    0 -0.00000000000E+00 -0.00000000000E+00 -0.45600000000E+02  0.45600000000E+02  0.00000000000E+00 0.  1.
        -11    1    1    2    0    0  0.41754532355E+00 -0.15928463627E+01  0.35511228547E+02  0.35549386163E+02  0.00000000000E+00 0.  1.
         11    1    1    2    0    0 -0.10011915888E+01 -0.35966846526E+00 -0.41815206898E+02  0.41828737417E+02  0.00000000000E+00 0.  1.
        -15    1    1    2    0    0  0.43600993424E+01  0.21796279952E+01 -0.11146884947E+01  0.53067413648E+01  0.17770000000E+01 0.  1.
         15    1    1    2    0    0 -0.37764530772E+01 -0.22711316722E+00  0.74186668453E+01  0.85151350545E+01  0.17770000000E+01 0.  1.
</event>
<event>
 6    1  0.3691007E-002  0.4657990E+02  0.7546771E-02  0.1313374E+00
        -11   -1    0    0    0    0  0.00000000000E+00  0.00000000000E+00  0.45600000000E+02  0.45600000000E+02  0.00000000000E+00 0.  1.
         11   -1    0    0    0    0 -0.00000000000E+00 -0.00000000000E+00 -0.45600000000E+02  0.45600000000E+02  0.00000000000E+00 0.  1.
        -11    1    1    2    0    0 -0.85769619913E+00  0.87158641247E-01  0.44611770259E+02  0.44620099563E+02  0.00000000000E+00 0.  1.
         11    1    1    2    0    0  0.47628084668E+00 -0.41482869592E+00 -0.36920000326E+02  0.36925402507E+02  0.00000000000E+00 0.  1.
        -15    1    1    2    0    0 -0.11802569359E+01 -0.10365122862E+01 -0.59758456182E+01  0.64292942075E+01  0.17770000000E+01 0.  1.
         15    1    1    2    0    0  0.15616722883E+01  0.13641823409E+01 -0.17159243148E+01  0.32252037222E+01  0.17770000000E+01 0.  1.
</event>
<event>
 6    1  0.3691007E-002  0.4670278E+02  0.7546771E-02  0.1312790E+00
        -11   -1    0    0    0    0  0.00000000000E+00  0.00000000000E+00  0.45600000000E+02  0.45600000000E+02  0.00000000000E+00 0. -1.
         11   -1    0    0    0    0 -0.00000000000E+00 -0.00000000000E+00 -0.45600000000E+02  0.45600000000E+02  0.00000000000E+00 0. -1.
        -11    1    1    2    0    0 -0.83882789556E+00 -0.73018843875E+00  0.44483319104E+02  0.44497218856E+02  0.00000000000E+00 0. -1.
         11    1    1    2    0    0 -0.93219041563E-03  0.85210912134E+00 -0.32608405280E+02  0.32619536871E+02  0.00000000000E+00 0. -1.
        -15    1    1    2    0    0 -0.19332407804E+01  0.29027248395E+00 -0.98432411027E+01  0.10191604507E+02  0.17770000000E+01 0. -1.
         15    1    1    2    0    0  0.27730008663E+01 -0.41219316655E+00 -0.20316727220E+01  0.38916397650E+01  0.17770000000E+01 0.  1.
</event>
<event>
 6    1  0.3691007E-002  0.4599619E+02  0.7546771E-02  0.1316174E+00
        -11   -1    0    0    0    0  0.00000000000E+00  0.00000000000E+00  0.45600000000E+02  0.45600000000E+02  0.00000000000E+00 0.  1.
         11   -1    0    0    0    0 -0.00000000000E+00 -0.00000000000E+00 -0.45600000000E+02  0.45600000000E+02  0.00000000000E+00 0.  1.
        -11    1    1    2    0    0  0.10082103036E+01  0.14283993830E+01  0.45169986123E+02  0.45203810228E+02  0.00000000000E+00 0.  1.
         11    1    1    2    0    0 -0.10270943996E+01  0.37651452069E+00 -0.20342440032E+02  0.20371832332E+02  0.00000000000E+00 0.  1.
        -15    1    1    2    0    0  0.20668659124E+01 -0.15304362896E+01 -0.82132636294E+01  0.87880372314E+01  0.17770000000E+01 0. -1.
         15    1    1    2    0    0 -0.20479818163E+01 -0.27447761416E+00 -0.16614282461E+02  0.16836320209E+02  0.17770000000E+01 0.  1.
</event>
<event>
 6    1  0.3691007E-002  0.4884404E+02  0.7546771E-02  0.1302943E+00
        -11   -1    0    0    0    0  0.00000000000E+00  0.00000000000E+00  0.45600000000E+02  0.45600000000E+02  0.00000000000E+00 0.  1.
         11   -1    0    0    0    0 -0.00000000000E+00 -0.00000000000E+00 -0.45600000000E+02  0.45600000000E+02  0.00000000000E+00 0.  1.
        -11    1    1    2    0    0 -0.10447160210E+01 -0.10279442343E+01  0.38805525817E+02  0.38833193725E+02  0.00000000000E+00 0.  1.
         11    1    1    2    0    0 -0.30857973234E+01 -0.14638723710E+00 -0.42243152660E+02  0.42355962048E+02  0.00000000000E+00 0.  1.
        -15    1    1    2    0    0  0.59032614409E+01  0.18270206124E+01  0.11081223813E+01  0.65247347969E+01  0.17770000000E+01 0.  1.
         15    1    1    2    0    0 -0.17727480966E+01 -0.65268914092E+00  0.23295044615E+01  0.34861094310E+01  0.17770000000E+01 0.  1.
</event>
<event>
 6    1  0.3691007E-002  0.4709581E+02  0.7546771E-02  0.1310938E+00
        -11   -1    0    0    0    0  0.00000000000E+00  0.00000000000E+00  0.45600000000E+02  0.45600000000E+02  0.00000000000E+00 0.  1.
         11   -1    0    0    0    0 -0.00000000000E+00 -0.00000000000E+00 -0.45600000000E+02  0.45600000000E+02  0.00000000000E+00 0.  1.
        -11    1    1    2    0    0  0.10370401802E+01 -0.50190397750E+00  0.44089143292E+02  0.44104193861E+02  0.00000000000E+00 0.  1.
         11    1    1    2    0    0  0.29830626326E+00  0.85176368476E+00 -0.27189431250E+02  0.27204405153E+02  0.00000000000E+00 0.  1.
        -15    1    1    2    0    0  0.25454198988E+01  0.30940190207E+01 -0.10975760529E+02  0.11818509397E+02  0.17770000000E+01 0.  1.
         15    1    1    2    0    0 -0.38807663423E+01 -0.34438787280E+01 -0.59239515119E+01  0.80728915892E+01  0.17770000000E+01 0. -1.
</event>
<event>
 6    1  0.3691007E-002  0.4649622E+02  0.7546771E-02  0.1313773E+00
        -11   -1    0    0    0    0  0.00000000000E+00  0.00000000000E+00  0.45600000000E+02  0.45600000000E+02  0.00000000000E+00 0.  1.
         11   -1    0    0    0    0 -0.00000000000E+00 -0.00000000000E+00 -0.45600000000E+02  0.45600000000E+02  0.00000000000E+00 0.  1.
        -11    1    1    2    0    0 -0.89685871754E+00  0.10798844148E+01  0.28035491810E+02  0.28070612870E+02  0.00000000000E+00 0.  1.
         11    1    1    2    0    0 -0.18321114138E+01  0.10165356586E+01 -0.44654652446E+02  0.44703780177E+02  0.00000000000E+00 0.  1.
        -15    1    1    2    0    0  0.19726509372E+01  0.15785827201E+01  0.11085211481E+02  0.11507515705E+02  0.17770000000E+01 0. -1.
         15    1    1    2    0    0  0.75631919422E+00 -0.36750027936E+01  0.55339491562E+01  0.69180912483E+01  0.17770000000E+01 0.  1.
</event>
<event>
 6    1  0.3691007E-002  0.5120945E+02  0.7546771E-02  0.1292717E+00
        -11   -1    0    0    0    0  0.00000000000E+00  0.00000000000E+00  0.45600000000E+02  0.45600000000E+02  0.00000000000E+00 0.  1.
         11   -1    0    0    0    0 -0.00000000000E+00 -0.00000000000E+00 -0.45600000000E+02  0.45600000000E+02  0.00000000000E+00 0. -1.
        -11    1    1    2    0    0  0.55994257203E+00  0.51135148704E-01  0.29172587217E+02  0.29178005337E+02  0.00000000000E+00 0.  1.
         11    1    1    2    0    0  0.43399788509E+00 -0.44259283449E+00 -0.39985748862E+02  0.39990553318E+02  0.00000000000E+00 0. -1.
        -15    1    1    2    0    0 -0.66704127188E+01  0.40997216859E+01  0.12467982612E+02  0.14829377706E+02  0.17770000000E+01 0.  1.
         15    1    1    2    0    0  0.56764722617E+01 -0.37082640001E+01 -0.16548209668E+01  0.72020636393E+01  0.17770000000E+01 0. -1.
</event>
<event>
 6    1  0.3691007E-002  0.4878796E+02  0.7546771E-02  0.1303194E+00
        -11   -1    0    0    0    0  0.00000000000E+00  0.00000000000E+00  0.45600000000E+02  0.45600000000E+02  0.00000000000E+00 0. -1.
         11   -1    0    0    0    0 -0.00000000000E+00 -0.00000000000E+00 -0.45600000000E+02  0.45600000000E+02  0.00000000000E+00 0. -1.
        -11    1    1    2    0    0 -0.67274258735E+01  0.58331310507E+01  0.26582218615E+02  0.28033872784E+02  0.00000000000E+00 0. -1.
         11    1    1    2    0    0  0.24291906812E+00  0.38361429389E+01 -0.42237495624E+02  0.42412038844E+02  0.00000000000E+00 0. -1.
        -15    1    1    2    0    0  0.72214307429E+01 -0.63139447050E+01  0.11362070166E+02  0.14975624434E+02  0.17770000000E+01 0. -1.
         15    1    1    2    0    0 -0.73692393752E+00 -0.33553292845E+01  0.42932068423E+01  0.57784639384E+01  0.17770000000E+01 0.  1.
</event>
<event>
 6    1  0.3691007E-002  0.4685797E+02  0.7546771E-02  0.1312057E+00
        -11   -1    0    0    0    0  0.00000000000E+00  0.00000000000E+00  0.45600000000E+02  0.45600000000E+02  0.00000000000E+00 0. -1.
         11   -1    0    0    0    0 -0.00000000000E+00 -0.00000000000E+00 -0.45600000000E+02  0.45600000000E+02  0.00000000000E+00 0.  1.
        -11    1    1    2    0    0 -0.11770960541E+01 -0.66153471483E+00  0.42075805050E+02  0.42097464934E+02  0.00000000000E+00 0. -1.
         11    1    1    2    0    0 -0.31173159943E+00  0.13438867005E+01 -0.44320565551E+02  0.44342031289E+02  0.00000000000E+00 0.  1.
        -15    1    1    2    0    0  0.64938173359E+00 -0.81966698538E+00  0.48323147495E+00  0.21177328116E+01  0.17770000000E+01 0.  1.
         15    1    1    2    0    0  0.83944591996E+00  0.13731499970E+00  0.17615290266E+01  0.26427709650E+01  0.17770000000E+01 0. -1.
</event>
<event>
 6    1  0.3691007E-002  0.4620495E+02  0.7546771E-02  0.1315167E+00
        -11   -1    0    0    0    0  0.00000000000E+00  0.00000000000E+00  0.45600000000E+02  0.45600000000E+02  0.00000000000E+00 0.  1.
         11   -1    0    0    0    0 -0.00000000000E+00 -0.00000000000E+00 -0.45600000000E+02  0.45600000000E+02  0.00000000000E+00 0. -1.
        -11    1    1    2    0    0  0.39163763065E+01  0.75919368357E+00  0.44817851617E+02  0.44995046416E+02  0.00000000000E+00 0.  1.
         11    1    1    2    0    0  0.40027298733E+00  0.53755703613E+00 -0.30208192530E+02  0.30215626453E+02  0.00000000000E+00 0. -1.
        -15    1    1    2    0    0 -0.33713023325E+01 -0.16626881588E+01 -0.11819557481E+02  0.12529560223E+02  0.17770000000E+01 0. -1.
         15    1    1    2    0    0 -0.94534696132E+00  0.36593743908E+00 -0.27901016057E+01  0.34597669078E+01  0.17770000000E+01 0. -1.
</event>
<event>
 6    1  0.3691007E-002  0.4617249E+02  0.7546771E-02  0.1315323E+00
        -11   -1    0    0    0    0  0.00000000000E+00  0.00000000000E+00  0.45600000000E+02  0.45600000000E+02  0.00000000000E+00 0. -1.
         11   -1    0    0    0    0 -0.00000000000E+00 -0.00000000000E+00 -0.45600000000E+02  0.45600000000E+02  0.00000000000E+00 0. -1.
        -11    1    1    2    0    0  0.43542496117E+00  0.80983353487E+00  0.45018124402E+02  0.45027513255E+02  0.00000000000E+00 0. -1.
         11    1    1    2    0    0  0.54599371322E+00 -0.39488369647E+00 -0.36504202870E+02  0.36510421381E+02  0.00000000000E+00 0. -1.
        -15    1    1    2    0    0 -0.14711889253E+01  0.55786588781E-01 -0.64727195028E+01  0.68717782094E+01  0.17770000000E+01 0.  1.
         15    1    1    2    0    0  0.48977025087E+00 -0.47073642719E+00 -0.20412020288E+01  0.27902871546E+01  0.17770000000E+01 0. -1.
</event>
<event>
 6    1  0.3691007E-002  0.4752178E+02  0.7546771E-02  0.1308954E+00
        -11   -1    0    0    0    0  0.00000000000E+00  0.00000000000E+00  0.45600000000E+02  0.45600000000E+02  0.00000000000E+00 0.  1.
         11   -1    0    0    0    0 -0.00000000000E+00 -0.00000000000E+00 -0.45600000000E+02  0.45600000000E+02  0.00000000000E+00 0.  1.
        -11    1    1    2    0    0 -0.39939519120E+00 -0.34356816953E+00  0.29062211311E+02  0.29066986116E+02  0.00000000000E+00 0.  1.
         11    1    1    2    0    0 -0.64252526045E+00  0.12891356359E+01 -0.43654458944E+02  0.43678215338E+02  0.00000000000E+00 0.  1.
        -15    1    1    2    0    0  0.10001972911E+01 -0.42538574234E+00 -0.12997247799E+01  0.24552721141E+01  0.17770000000E+01 0.  1.
         15    1    1    2    0    0  0.41723160553E-01 -0.52018172398E+00  0.15891972413E+02  0.15999526432E+02  0.17770000000E+01 0.  1.
</event>
<event>
 6    1  0.3691007E-002  0.4712128E+02  0.7546771E-02  0.1310819E+00
        -11   -1    0    0    0    0  0.00000000000E+00  0.00000000000E+00  0.45600000000E+02  0.45600000000E+02  0.00000000000E+00 0.  1.
         11   -1    0    0    0    0 -0.00000000000E+00 -0.00000000000E+00 -0.45600000000E+02  0.45600000000E+02  0.00000000000E+00 0. -1.
        -11    1    1    2    0    0 -0.32775180154E+01  0.36651633871E+01  0.43803634433E+02  0.44078724307E+02  0.00000000000E+00 0.  1.
         11    1    1    2    0    0  0.10523930173E+01  0.68904515052E+00 -0.30698667227E+02  0.30724428128E+02  0.00000000000E+00 0. -1.
        -15    1    1    2    0    0  0.40977799011E+01 -0.21551854342E+01 -0.31378129673E+01  0.58685793503E+01  0.17770000000E+01 0.  1.
         15    1    1    2    0    0 -0.18726549030E+01 -0.21990231035E+01 -0.99671542384E+01  0.10528268215E+02  0.17770000000E+01 0.  1.
</event>
<event>
 6    1  0.3691007E-002  0.4834897E+02  0.7546771E-02  0.1305168E+00
        -11   -1    0    0    0    0  0.00000000000E+00  0.00000000000E+00  0.45600000000E+02  0.45600000000E+02  0.00000000000E+00 0.  1.
         11   -1    0    0    0    0 -0.00000000000E+00 -0.00000000000E+00 -0.45600000000E+02  0.45600000000E+02  0.00000000000E+00 0.  1.
        -11    1    1    2    0    0 -0.14518992482E+01  0.44290303924E-02  0.39125164534E+02  0.39152094846E+02  0.00000000000E+00 0.  1.
         11    1    1    2    0    0 -0.31399225571E+01 -0.18843290213E+01 -0.42694270722E+02  0.42851027549E+02  0.00000000000E+00 0.  1.
        -15    1    1    2    0    0  0.42896296816E+01  0.11289758360E+01  0.48918376720E+01  0.68383707163E+01  0.17770000000E+01 0. -1.
         15    1    1    2    0    0  0.30219212363E+00  0.75092415489E+00 -0.13227314838E+01  0.23585068888E+01  0.17770000000E+01 0.  1.
</event>
<event>
 6    1  0.3691007E-002  0.4704459E+02  0.7546771E-02  0.1311178E+00
        -11   -1    0    0    0    0  0.00000000000E+00  0.00000000000E+00  0.45600000000E+02  0.45600000000E+02  0.00000000000E+00 0.  1.
         11   -1    0    0    0    0 -0.00000000000E+00 -0.00000000000E+00 -0.45600000000E+02  0.45600000000E+02  0.00000000000E+00 0. -1.
        -11    1    1    2    0    0 -0.53767070002E+00  0.88433633795E+00  0.27427429798E+02  0.27446949664E+02  0.00000000000E+00 0.  1.
         11    1    1    2    0    0 -0.44959343374E+00  0.21985605669E+01 -0.44098353428E+02  0.44155413914E+02  0.00000000000E+00 0. -1.
        -15    1    1    2    0    0 -0.95459999747E-01 -0.44159484565E+01  0.16440122300E+02  0.17115637985E+02  0.17770000000E+01 0.  1.
         15    1    1    2    0    0  0.10827241335E+01  0.13330515516E+01  0.23080132981E+00  0.24819984372E+01  0.17770000000E+01 0. -1.
</event>
<event>
 6    1  0.3691007E-002  0.5157393E+02  0.7546771E-02  0.1291198E+00
        -11   -1    0    0    0    0  0.00000000000E+00  0.00000000000E+00  0.45600000000E+02  0.45600000000E+02  0.00000000000E+00 0.  1.
         11   -1    0    0    0    0 -0.00000000000E+00 -0.00000000000E+00 -0.45600000000E+02  0.45600000000E+02  0.00000000000E+00 0.  1.
        -11    1    1    2    0    0  0.12195853783E+01 -0.46048210595E+00  0.39604625506E+02  0.39626074670E+02  0.00000000000E+00 0.  1.
         11    1    1    2    0    0 -0.55257585615E+00  0.72974061658E+00 -0.37446385907E+02  0.37457571717E+02  0.00000000000E+00 0.  1.
        -15    1    1    2    0    0 -0.19444557024E+01  0.13936081804E+01 -0.75212012934E+01  0.80900710525E+01  0.17770000000E+01 0.  1.
         15    1    1    2    0    0  0.12774461803E+01 -0.16628666910E+01  0.53629616938E+01  0.60262825610E+01  0.17770000000E+01 0. -1.
</event>
<event>
 6    1  0.3691007E-002  0.4649472E+02  0.7546771E-02  0.1313780E+00
        -11   -1    0    0    0    0  0.00000000000E+00  0.00000000000E+00  0.45600000000E+02  0.45600000000E+02  0.00000000000E+00 0. -1.
         11   -1    0    0    0    0 -0.00000000000E+00 -0.00000000000E+00 -0.45600000000E+02  0.45600000000E+02  0.00000000000E+00 0. -1.
        -11    1    1    2    0    0 -0.63879033825E+00 -0.50388496933E+00  0.44697872292E+02  0.44705276429E+02  0.00000000000E+00 0. -1.
         11    1    1    2    0    0 -0.22750290707E+01  0.14193592494E+01 -0.37476672185E+02  0.37572480568E+02  0.00000000000E+00 0. -1.
        -15    1    1    2    0    0  0.11484985079E+01 -0.15400551781E+01 -0.41972566497E+01  0.49462623422E+01  0.17770000000E+01 0. -1.
         15    1    1    2    0    0  0.17653209010E+01  0.62458089801E+00 -0.30239434576E+01  0.39759806610E+01  0.17770000000E+01 0. -1.
</event>
<event>
 6    1  0.3691007E-002  0.4437203E+02  0.7546771E-02  0.1324225E+00
        -11   -1    0    0    0    0  0.00000000000E+00  0.00000000000E+00  0.45600000000E+02  0.45600000000E+02  0.00000000000E+00 0.  1.
         11   -1    0    0    0    0 -0.00000000000E+00 -0.00000000000E+00 -0.45600000000E+02  0.45600000000E+02  0.00000000000E+00 0.  1.
        -11    1    1    2    0    0  0.15936709687E+01  0.16044859744E+01  0.45271223918E+02  0.45327672315E+02  0.00000000000E+00 0.  1.
         11    1    1    2    0    0  0.40498807567E+00 -0.32544827538E+00 -0.28339518490E+01  0.28811829174E+01  0.00000000000E+00 0.  1.
        -15    1    1    2    0    0 -0.32194304892E+01  0.76910206319E+00 -0.19174197954E+02  0.19538778028E+02  0.17770000000E+01 0. -1.
         15    1    1    2    0    0  0.12207714448E+01 -0.20481397622E+01 -0.23263074116E+02  0.23452366740E+02  0.17770000000E+01 0.  1.
</event>
<event>
 6    1  0.3691007E-002  0.4697546E+02  0.7546771E-02  0.1311503E+00
        -11   -1    0    0    0    0  0.00000000000E+00  0.00000000000E+00  0.45600000000E+02  0.45600000000E+02  0.00000000000E+00 0.  1.
         11   -1    0    0    0    0 -0.00000000000E+00 -0.00000000000E+00 -0.45600000000E+02  0.45600000000E+02  0.00000000000E+00 0.  1.
        -11    1    1    2    0    0  0.31605122417E+01 -0.68759369383E+00  0.39684099980E+02  0.39815693061E+02  0.00000000000E+00 0.  1.
         11    1    1    2    0    0  0.51079077114E-01  0.93023359160E+00 -0.44214721822E+02  0.44224535831E+02  0.00000000000E+00 0.  1.
        -15    1    1    2    0    0 -0.20759224669E+01 -0.11286065496E+01  0.36771264486E+01  0.47182830300E+01  0.17770000000E+01 0.  1.
         15    1    1    2    0    0 -0.11356688520E+01  0.88596665183E+00  0.85349539384E+00  0.24414880784E+01  0.17770000000E+01 0. -1.
</event>
<event>
 6    1  0.3691007E-002  0.4774841E+02  0.7546771E-02  0.1307908E+00
        -11   -1    0    0    0    0  0.00000000000E+00  0.00000000000E+00  0.45600000000E+02  0.45600000000E+02  0.00000000000E+00 0.  1.
         11   -1    0    0    0    0 -0.00000000000E+00 -0.00000000000E+00 -0.45600000000E+02  0.45600000000E+02  0.00000000000E+00 0. -1.
        -11    1    1    2    0    0 -0.60214020546E+00  0.24582279404E+01  0.28126751240E+02  0.28240389387E+02  0.00000000000E+00 0.  1.
         11    1    1    2    0    0 -0.76015962840E+00 -0.40369764536E+01 -0.43256975946E+02  0.43451593636E+02  0.00000000000E+00 0. -1.
        -15    1    1    2    0    0  0.59182070859E+01 -0.15382551224E+01  0.64080371958E+01  0.90339400948E+01  0.17770000000E+01 0. -1.
         15    1    1    2    0    0 -0.45559072521E+01  0.31170036355E+01  0.87221875103E+01  0.10474076881E+02  0.17770000000E+01 0.  1.
</event>
<event>
 6    1  0.3691007E-002  0.4819472E+02  0.7546771E-02  0.1305867E+00
        -11   -1    0    0    0    0  0.00000000000E+00  0.00000000000E+00  0.45600000000E+02  0.45600000000E+02  0.00000000000E+00 0.  1.
         11   -1    0    0    0    0 -0.00000000000E+00 -0.00000000000E+00 -0.45600000000E+02  0.45600000000E+02  0.00000000000E+00 0. -1.
        -11    1    1    2    0    0 -0.11932942499E+00  0.59875924836E+00  0.43000950959E+02  0.43005284972E+02  0.00000000000E+00 0.  1.
         11    1    1    2    0    0  0.99138767222E+00  0.23246757704E+00 -0.39967599464E+02  0.39980569001E+02  0.00000000000E+00 0. -1.
        -15    1    1    2    0    0  0.20741433426E+01 -0.33515060335E+00  0.96491976765E+00  0.29160239523E+01  0.17770000000E+01 0.  1.
         15    1    1    2    0    0 -0.29462015898E+01 -0.49607622204E+00 -0.39982712627E+01  0.52981220745E+01  0.17770000000E+01 0.  1.
</event>
<event>
 6    1  0.3691007E-002  0.4834989E+02  0.7546771E-02  0.1305163E+00
        -11   -1    0    0    0    0  0.00000000000E+00  0.00000000000E+00  0.45600000000E+02  0.45600000000E+02  0.00000000000E+00 0. -1.
         11   -1    0    0    0    0 -0.00000000000E+00 -0.00000000000E+00 -0.45600000000E+02  0.45600000000E+02  0.00000000000E+00 0. -1.
        -11    1    1    2    0    0  0.66491186718E+00 -0.45242573833E+00  0.28734433472E+02  0.28745686003E+02  0.00000000000E+00 0. -1.
         11    1    1    2    0    0  0.49601146136E-01 -0.16525388574E+01 -0.42818206333E+02  0.42850112468E+02  0.00000000000E+00 0. -1.
        -15    1    1    2    0    0  0.67089676122E+00 -0.25479731221E+01 -0.12555807185E+01  0.34170866884E+01  0.17770000000E+01 0. -1.
         15    1    1    2    0    0 -0.13854097745E+01  0.46529377178E+01  0.15339353579E+02  0.16187114841E+02  0.17770000000E+01 0. -1.
</event>
<event>
 6    1  0.3691007E-002  0.4671924E+02  0.7546771E-02  0.1312712E+00
        -11   -1    0    0    0    0  0.00000000000E+00  0.00000000000E+00  0.45600000000E+02  0.45600000000E+02  0.00000000000E+00 0.  1.
         11   -1    0    0    0    0 -0.00000000000E+00 -0.00000000000E+00 -0.45600000000E+02  0.45600000000E+02  0.00000000000E+00 0. -1.
        -11    1    1    2    0    0  0.29421514323E+01 -0.32071025049E+01  0.44267325305E+02  0.44480758213E+02  0.00000000000E+00 0.  1.
         11    1    1    2    0    0 -0.36352410419E+00  0.10023208064E+01 -0.91400744689E+01  0.92020518402E+01  0.00000000000E+00 0. -1.
        -15    1    1    2    0    0 -0.29824862715E+01 -0.18144774186E+01 -0.26222100843E+01  0.47139439314E+01  0.17770000000E+01 0.  1.
         15    1    1    2    0    0  0.40385894344E+00  0.40192591171E+01 -0.32505040752E+02  0.32803246016E+02  0.17770000000E+01 0. -1.
</event>
<event>
 6    1  0.3691007E-002  0.2987959E+02  0.7546771E-02  0.1419943E+00
        -11   -1    0    0    0    0  0.00000000000E+00  0.00000000000E+00  0.45600000000E+02  0.45600000000E+02  0.00000000000E+00 0.  1.
         11   -1    0    0    0    0 -0.00000000000E+00 -0.00000000000E+00 -0.45600000000E+02  0.45600000000E+02  0.00000000000E+00 0.  1.
        -11    1    1    2    0    0 -0.15269689810E+01  0.46640408033E+01  0.35428534428E+02  0.35766827685E+02  0.00000000000E+00 0.  1.
         11    1    1    2    0    0  0.20511403321E+01  0.84678899149E+00 -0.16616827182E+02  0.16764342333E+02  0.00000000000E+00 0.  1.
        -15    1    1    2    0    0 -0.71078951147E+00  0.56624664783E+01 -0.25046310323E+02  0.25749643457E+02  0.17770000000E+01 0. -1.
         15    1    1    2    0    0  0.18661816036E+00 -0.11173296273E+02  0.62346030771E+01  0.12919186525E+02  0.17770000000E+01 0.  1.
</event>
<event>
 6    1  0.3691007E-002  0.4634303E+02  0.7546771E-02  0.1314505E+00
        -11   -1    0    0    0    0  0.00000000000E+00  0.00000000000E+00  0.45600000000E+02  0.45600000000E+02  0.00000000000E+00 0. -1.
         11   -1    0    0    0    0 -0.00000000000E+00 -0.00000000000E+00 -0.45600000000E+02  0.45600000000E+02  0.00000000000E+00 0.  1.
        -11    1    1    2    0    0  0.79507568451E+00 -0.18664417517E+00  0.44849531539E+02  0.44856966690E+02  0.00000000000E+00 0. -1.
         11    1    1    2    0    0  0.13135185483E+00 -0.11756811563E+01 -0.29732963232E+02  0.29756488066E+02  0.00000000000E+00 0.  1.
        -15    1    1    2    0    0  0.19691461859E+01  0.88519104464E-01 -0.33532584056E+01  0.42763820301E+01  0.17770000000E+01 0.  1.
         15    1    1    2    0    0 -0.28955737252E+01  0.12738062270E+01 -0.11763309902E+02  0.12310163214E+02  0.17770000000E+01 0.  1.
</event>
<event>
 6    1  0.3691007E-002  0.4616123E+02  0.7546771E-02  0.1315378E+00
        -11   -1    0    0    0    0  0.00000000000E+00  0.00000000000E+00  0.45600000000E+02  0.45600000000E+02  0.00000000000E+00 0.  1.
         11   -1    0    0    0    0 -0.00000000000E+00 -0.00000000000E+00 -0.45600000000E+02  0.45600000000E+02  0.00000000000E+00 0. -1.
        -11    1    1    2    0    0  0.12078853639E+01 -0.33667192362E+01  0.44896515275E+02  0.45038770735E+02  0.00000000000E+00 0.  1.
         11    1    1    2    0    0 -0.23661238417E+00 -0.89903590766E+00 -0.22411396946E+02  0.22430670165E+02  0.00000000000E+00 0. -1.
        -15    1    1    2    0    0 -0.27395836640E+01  0.91059686046E+00 -0.95041522726E+01  0.10090646397E+02  0.17770000000E+01 0. -1.
         15    1    1    2    0    0  0.17683106842E+01  0.33551582834E+01 -0.12980966056E+02  0.13639912702E+02  0.17770000000E+01 0.  1.
</event>
<event>
 6    1  0.3691007E-002  0.5273761E+02  0.7546771E-02  0.1286442E+00
        -11   -1    0    0    0    0  0.00000000000E+00  0.00000000000E+00  0.45600000000E+02  0.45600000000E+02  0.00000000000E+00 0. -1.
         11   -1    0    0    0    0 -0.00000000000E+00 -0.00000000000E+00 -0.45600000000E+02  0.45600000000E+02  0.00000000000E+00 0. -1.
        -11    1    1    2    0    0  0.15392657063E+00 -0.18609240053E+01  0.38417034180E+02  0.38462387428E+02  0.00000000000E+00 0. -1.
         11    1    1    2    0    0  0.15172742444E+01 -0.18155653456E+01 -0.33498868930E+02  0.33582325980E+02  0.00000000000E+00 0. -1.
        -15    1    1    2    0    0 -0.31413950012E+01 -0.37555147978E+01 -0.89770519131E+01  0.10378701460E+02  0.17770000000E+01 0.  1.
         15    1    1    2    0    0  0.14701941861E+01  0.74320041487E+01  0.40588866637E+01  0.87765851309E+01  0.17770000000E+01 0. -1.
</event>
<event>
 6    1  0.3691007E-002  0.4902656E+02  0.7546771E-02  0.1302131E+00
        -11   -1    0    0    0    0  0.00000000000E+00  0.00000000000E+00  0.45600000000E+02  0.45600000000E+02  0.00000000000E+00 0.  1.
         11   -1    0    0    0    0 -0.00000000000E+00 -0.00000000000E+00 -0.45600000000E+02  0.45600000000E+02  0.00000000000E+00 0.  1.
        -11    1    1    2    0    0  0.57261377794E+00  0.36744870483E+00  0.42167947061E+02  0.42173435530E+02  0.00000000000E+00 0.  1.
         11    1    1    2    0    0 -0.63752608863E+00  0.21470960268E+00 -0.38624327804E+02  0.38630185582E+02  0.00000000000E+00 0.  1.
        -15    1    1    2    0    0  0.17839373660E+01  0.36864159571E+01 -0.31176084339E+01  0.54451176739E+01  0.17770000000E+01 0.  1.
         15    1    1    2    0    0 -0.17190250553E+01 -0.42685742647E+01 -0.42601082222E+00  0.49512612145E+01  0.17770000000E+01 0. -1.
</event>
<event>
 6    1  0.3691007E-002  0.4940547E+02  0.7546771E-02  0.1300457E+00
        -11   -1    0    0    0    0  0.00000000000E+00  0.00000000000E+00  0.45600000000E+02  0.45600000000E+02  0.00000000000E+00 0.  1.
         11   -1    0    0    0    0 -0.00000000000E+00 -0.00000000000E+00 -0.45600000000E+02  0.45600000000E+02  0.00000000000E+00 0. -1.
        -11    1    1    2    0    0  0.51237964156E+01  0.11014345655E+01  0.34978362759E+02  0.35368804180E+02  0.00000000000E+00 0.  1.
         11    1    1    2    0    0  0.66716662013E+00 -0.67209887046E+00 -0.41783797215E+02  0.41794527607E+02  0.00000000000E+00 0. -1.
        -15    1    1    2    0    0 -0.11910865678E+01  0.29326249802E+01  0.71918061934E+01  0.80559780170E+01  0.17770000000E+01 0.  1.
         15    1    1    2    0    0 -0.45998764680E+01 -0.33619606752E+01 -0.38637173712E+00  0.59806901961E+01  0.17770000000E+01 0. -1.
</event>
<event>
 6    1  0.3691007E-002  0.3457422E+02  0.7546771E-02  0.1383008E+00
        -11   -1    0    0    0    0  0.00000000000E+00  0.00000000000E+00  0.45600000000E+02  0.45600000000E+02  0.00000000000E+00 0.  1.
         11   -1    0    0    0    0 -0.00000000000E+00 -0.00000000000E+00 -0.45600000000E+02  0.45600000000E+02  0.00000000000E+00 0. -1.
        -11    1    1    2    0    0 -0.58644661100E+01  0.16238422522E+02  0.23567405187E+02  0.29214737993E+02  0.00000000000E+00 0.  1.
         11    1    1    2    0    0  0.70035392513E+00 -0.52723009016E+01 -0.30179610697E+02  0.30644682315E+02  0.00000000000E+00 0. -1.
        -15    1    1    2    0    0 -0.64636682768E+01  0.41753327430E+01  0.90514542654E+01  0.12012450392E+02  0.17770000000E+01 0.  1.
         15    1    1    2    0    0  0.11627780462E+02 -0.15141454364E+02 -0.24392487556E+01  0.19328129299E+02  0.17770000000E+01 0. -1.
</event>
<event>
 6    1  0.3691007E-002  0.4851361E+02  0.7546771E-02  0.1304424E+00
        -11   -1    0    0    0    0  0.00000000000E+00  0.00000000000E+00  0.45600000000E+02  0.45600000000E+02  0.00000000000E+00 0.  1.
         11   -1    0    0    0    0 -0.00000000000E+00 -0.00000000000E+00 -0.45600000000E+02  0.45600000000E+02  0.00000000000E+00 0.  1.
        -11    1    1    2    0    0  0.18198085816E+01  0.17178473924E+00  0.42647234029E+02  0.42686388739E+02  0.00000000000E+00 0.  1.
         11    1    1    2    0    0 -0.70122405777E+00  0.11968686489E+01 -0.36087633186E+02  0.36114283582E+02  0.00000000000E+00 0.  1.
        -15    1    1    2    0    0 -0.27035376011E+00 -0.14415940813E+01  0.23401258956E+01  0.32840832599E+01  0.17770000000E+01 0.  1.
         15    1    1    2    0    0 -0.84823076372E+00  0.72940693193E-01 -0.88997267392E+01  0.91152444183E+01  0.17770000000E+01 0.  1.
</event>
<event>
 6    1  0.3691007E-002  0.4033984E+02  0.7546771E-02  0.1346056E+00
        -11   -1    0    0    0    0  0.00000000000E+00  0.00000000000E+00  0.45600000000E+02  0.45600000000E+02  0.00000000000E+00 0.  1.
         11   -1    0    0    0    0 -0.00000000000E+00 -0.00000000000E+00 -0.45600000000E+02  0.45600000000E+02  0.00000000000E+00 0.  1.
        -11    1    1    2    0    0  0.43543571035E+01  0.23423653868E+01  0.38792283376E+02  0.39106116541E+02  0.00000000000E+00 0.  1.
         11    1    1    2    0    0  0.39742234596E+00  0.81693067697E+00 -0.41821950729E+02  0.41831816636E+02  0.00000000000E+00 0.  1.
        -15    1    1    2    0    0 -0.25797815805E+01  0.15189307571E+01  0.33042119812E+01  0.47997884812E+01  0.17770000000E+01 0.  1.
         15    1    1    2    0    0 -0.21719978690E+01 -0.46782268209E+01 -0.27454462826E+00  0.54622783418E+01  0.17770000000E+01 0. -1.
</event>
<event>
 6    1  0.3691007E-002  0.4207783E+02  0.7546771E-02  0.1336299E+00
        -11   -1    0    0    0    0  0.00000000000E+00  0.00000000000E+00  0.45600000000E+02  0.45600000000E+02  0.00000000000E+00 0. -1.
         11   -1    0    0    0    0 -0.00000000000E+00 -0.00000000000E+00 -0.45600000000E+02  0.45600000000E+02  0.00000000000E+00 0.  1.
        -11    1    1    2    0    0  0.15099049390E+01 -0.14063421612E+01  0.41187171246E+02  0.41238824988E+02  0.00000000000E+00 0. -1.
         11    1    1    2    0    0  0.13868211655E+01  0.31681803650E+01 -0.42862470399E+02  0.43001767504E+02  0.00000000000E+00 0.  1.
        -15    1    1    2    0    0 -0.19790611463E+01 -0.28809547178E+01 -0.30187748576E+00  0.39326126333E+01  0.17770000000E+01 0. -1.
         15    1    1    2    0    0 -0.91766495824E+00  0.11191165140E+01  0.19771766391E+01  0.30267948740E+01  0.17770000000E+01 0.  1.
</event>
<event>
 6    1  0.3691007E-002  0.4620131E+02  0.7546771E-02  0.1315185E+00
        -11   -1    0    0    0    0  0.00000000000E+00  0.00000000000E+00  0.45600000000E+02  0.45600000000E+02  0.00000000000E+00 0.  1.
         11   -1    0    0    0    0 -0.00000000000E+00 -0.00000000000E+00 -0.45600000000E+02  0.45600000000E+02  0.00000000000E+00 0.  1.
        -11    1    1    2    0    0 -0.59985282952E+00 -0.59713339813E+00  0.19396343869E+02  0.19414802271E+02  0.00000000000E+00 0.  1.
         11    1    1    2    0    0 -0.12553667225E+01  0.87504387046E+00 -0.44972661621E+02  0.44998688211E+02  0.00000000000E+00 0.  1.
        -15    1    1    2    0    0  0.24447142667E+01 -0.18079207350E+01  0.22942198210E+02  0.23210932616E+02  0.17770000000E+01 0.  1.
         15    1    1    2    0    0 -0.58949471470E+00  0.15300102626E+01  0.26341195423E+01  0.35755769025E+01  0.17770000000E+01 0. -1.
</event>
<event>
 6    1  0.3691007E-002  0.5307955E+02  0.7546771E-02  0.1285071E+00
        -11   -1    0    0    0    0  0.00000000000E+00  0.00000000000E+00  0.45600000000E+02  0.45600000000E+02  0.00000000000E+00 0. -1.
         11   -1    0    0    0    0 -0.00000000000E+00 -0.00000000000E+00 -0.45600000000E+02  0.45600000000E+02  0.00000000000E+00 0.  1.
        -11    1    1    2    0    0  0.67755676744E+00  0.37032144291E+00  0.38112632311E+02  0.38120453339E+02  0.00000000000E+00 0. -1.
         11    1    1    2    0    0 -0.41536923426E+00  0.13215919477E+01 -0.35919894638E+02  0.35946598833E+02  0.00000000000E+00 0.  1.
        -15    1    1    2    0    0 -0.26328966038E+01  0.60835089776E+01 -0.48437776058E+01  0.84000676486E+01  0.17770000000E+01 0. -1.
         15    1    1    2    0    0  0.23707090706E+01 -0.77754223681E+01  0.26510399328E+01  0.87328801793E+01  0.17770000000E+01 0.  1.
</event>
<event>
 6    1  0.3691007E-002  0.3919759E+02  0.7546771E-02  0.1352783E+00
        -11   -1    0    0    0    0  0.00000000000E+00  0.00000000000E+00  0.45600000000E+02  0.45600000000E+02  0.00000000000E+00 0.  1.
         11   -1    0    0    0    0 -0.00000000000E+00 -0.00000000000E+00 -0.45600000000E+02  0.45600000000E+02  0.00000000000E+00 0. -1.
        -11    1    1    2    0    0  0.54656144772E+00  0.98601295242E+00  0.37759397175E+02  0.37776223024E+02  0.00000000000E+00 0.  1.
         11    1    1    2    0    0 -0.89721790379E+01  0.44021778524E+01 -0.40060005411E+02  0.41287809339E+02  0.00000000000E+00 0. -1.
        -15    1    1    2    0    0  0.50146565075E+01 -0.48072750997E+01  0.36150969889E+01  0.80301512446E+01  0.17770000000E+01 0. -1.
         15    1    1    2    0    0  0.34109610827E+01 -0.58091570512E+00 -0.13144887529E+01  0.41058163921E+01  0.17770000000E+01 0.  1.
</event>
<event>
 6    1  0.3691007E-002  0.4191668E+02  0.7546771E-02  0.1337181E+00
        -11   -1    0    0    0    0  0.00000000000E+00  0.00000000000E+00  0.45600000000E+02  0.45600000000E+02  0.00000000000E+00 0.  1.
         11   -1    0    0    0    0 -0.00000000000E+00 -0.00000000000E+00 -0.45600000000E+02  0.45600000000E+02  0.00000000000E+00 0.  1.
        -11    1    1    2    0    0  0.23123427157E+01 -0.13650051591E+01  0.42371527834E+02  0.42456525281E+02  0.00000000000E+00 0.  1.
         11    1    1    2    0    0  0.17160234152E+01  0.22183903167E-01 -0.41453818170E+02  0.41489327174E+02  0.00000000000E+00 0.  1.
        -15    1    1    2    0    0 -0.10455554962E+01 -0.85854351700E+00  0.12988412238E+01  0.25836022896E+01  0.17770000000E+01 0.  1.
         15    1    1    2    0    0 -0.29828106346E+01  0.22013647730E+01 -0.22165508876E+01  0.46705452554E+01  0.17770000000E+01 0. -1.
</event>
<event>
 6    1  0.3691007E-002  0.4155394E+02  0.7546771E-02  0.1339182E+00
        -11   -1    0    0    0    0  0.00000000000E+00  0.00000000000E+00  0.45600000000E+02  0.45600000000E+02  0.00000000000E+00 0.  1.
         11   -1    0    0    0    0 -0.00000000000E+00 -0.00000000000E+00 -0.45600000000E+02  0.45600000000E+02  0.00000000000E+00 0.  1.
        -11    1    1    2    0    0  0.10750135281E+01 -0.24121952309E+01  0.41613599993E+02  0.41697314593E+02  0.00000000000E+00 0.  1.
         11    1    1    2    0    0 -0.63586197677E+00 -0.26434688854E+01 -0.41476450655E+02  0.41565468928E+02  0.00000000000E+00 0.  1.
        -15    1    1    2    0    0 -0.19737962316E+01  0.38989999276E+00 -0.36488843438E+00  0.27090157138E+01  0.17770000000E+01 0.  1.
         15    1    1    2    0    0  0.15346446803E+01  0.46657641235E+01  0.22773909725E+00  0.52282007658E+01  0.17770000000E+01 0. -1.
</event>
<event>
 6    1  0.3691007E-002  0.4656350E+02  0.7546771E-02  0.1313452E+00
        -11   -1    0    0    0    0  0.00000000000E+00  0.00000000000E+00  0.45600000000E+02  0.45600000000E+02  0.00000000000E+00 0. -1.
         11   -1    0    0    0    0 -0.00000000000E+00 -0.00000000000E+00 -0.45600000000E+02  0.45600000000E+02  0.00000000000E+00 0. -1.
        -11    1    1    2    0    0  0.10427624934E+01 -0.10492421893E+01  0.20208291592E+02  0.20262361952E+02  0.00000000000E+00 0. -1.
         11    1    1    2    0    0  0.21057667316E+01  0.73398972013E+00 -0.44580760859E+02  0.44636501130E+02  0.00000000000E+00 0. -1.
        -15    1    1    2    0    0 -0.11249564963E+00 -0.26266745750E+01  0.27542423937E+01  0.42018632483E+01  0.17770000000E+01 0.  1.
         15    1    1    2    0    0 -0.30360335754E+01  0.29419270442E+01  0.21618226873E+02  0.22099273669E+02  0.17770000000E+01 0. -1.
</event>
<event>
 6    1  0.3691007E-002  0.4004497E+02  0.7546771E-02  0.1347767E+00
        -11   -1    0    0    0    0  0.00000000000E+00  0.00000000000E+00  0.45600000000E+02  0.45600000000E+02  0.00000000000E+00 0.  1.
         11   -1    0    0    0    0 -0.00000000000E+00 -0.00000000000E+00 -0.45600000000E+02  0.45600000000E+02  0.00000000000E+00 0. -1.
        -11    1    1    2    0    0 -0.10810187938E+01 -0.12696797132E+01  0.38814747810E+02  0.38850551293E+02  0.00000000000E+00 0.  1.
         11    1    1    2    0    0 -0.49598340014E+01  0.32431793778E+01 -0.41098529397E+02  0.41523575044E+02  0.00000000000E+00 0. -1.
        -15    1    1    2    0    0 -0.86648939357E+00  0.14201991032E+01  0.15668305130E+01  0.28949017631E+01  0.17770000000E+01 0.  1.
         15    1    1    2    0    0  0.69073421887E+01 -0.33936987678E+01  0.71695107415E+00  0.79309719002E+01  0.17770000000E+01 0. -1.
</event>
<event>
 6    1  0.3691007E-002  0.4690734E+02  0.7546771E-02  0.1311824E+00
        -11   -1    0    0    0    0  0.00000000000E+00  0.00000000000E+00  0.45600000000E+02  0.45600000000E+02  0.00000000000E+00 0. -1.
         11   -1    0    0    0    0 -0.00000000000E+00 -0.00000000000E+00 -0.45600000000E+02  0.45600000000E+02  0.00000000000E+00 0.  1.
        -11    1    1    2    0    0 -0.45509276721E+00  0.64804826304E+00  0.44285580445E+02  0.44292659790E+02  0.00000000000E+00 0. -1.
         11    1    1    2    0    0 -0.32393995521E+00  0.34060451719E+01 -0.30177972090E+02  0.30371303565E+02  0.00000000000E+00 0.  1.
        -15    1    1    2    0    0 -0.15720782679E+01 -0.80357088301E+00 -0.10675668851E+02  0.10965618571E+02  0.17770000000E+01 0.  1.
         15    1    1    2    0    0  0.23511109903E+01 -0.32505225519E+01 -0.34319395042E+01  0.55704180732E+01  0.17770000000E+01 0. -1.
</event>
<event>
 6    1  0.3691007E-002  0.4702422E+02  0.7546771E-02  0.1311274E+00
        -11   -1    0    0    0    0  0.00000000000E+00  0.00000000000E+00  0.45600000000E+02  0.45600000000E+02  0.00000000000E+00 0.  1.
         11   -1    0    0    0    0 -0.00000000000E+00 -0.00000000000E+00 -0.45600000000E+02  0.45600000000E+02  0.00000000000E+00 0. -1.
        -11    1    1    2    0    0  0.37191525808E+00  0.62410960982E+00  0.44169801379E+02  0.44175776027E+02  0.00000000000E+00 0.  1.
         11    1    1    2    0    0 -0.67501898754E+00 -0.11235429711E+00 -0.40930197259E+02  0.40935917258E+02  0.00000000000E+00 0. -1.
        -15    1    1    2    0    0  0.12084453295E+01 -0.11608713584E+00 -0.34267567949E+01  0.40465055874E+01  0.17770000000E+01 0. -1.
         15    1    1    2    0    0 -0.90534160009E+00 -0.39566817687E+00  0.18715267527E+00  0.20418011272E+01  0.17770000000E+01 0. -1.
</event>
<event>
 6    1  0.3691007E-002  0.4627551E+02  0.7546771E-02  0.1314828E+00
        -11   -1    0    0    0    0  0.00000000000E+00  0.00000000000E+00  0.45600000000E+02  0.45600000000E+02  0.00000000000E+00 0. -1.
         11   -1    0    0    0    0 -0.00000000000E+00 -0.00000000000E+00 -0.45600000000E+02  0.45600000000E+02  0.00000000000E+00 0. -1.
        -11    1    1    2    0    0 -0.11860275801E-01  0.17320487109E+01  0.44891082570E+02  0.44924485837E+02  0.00000000000E+00 0. -1.
         11    1    1    2    0    0  0.33245329702E+00  0.85484966938E+00 -0.23948233209E+02  0.23965791599E+02  0.00000000000E+00 0. -1.
        -15    1    1    2    0    0  0.20115047193E+01 -0.35646731680E+01 -0.10249707747E+02  0.11178876685E+02  0.17770000000E+01 0. -1.
         15    1    1    2    0    0 -0.23320977405E+01  0.97777478773E+00 -0.10693141614E+02  0.11130845879E+02  0.17770000000E+01 0. -1.
</event>
<event>
 6    1  0.3691007E-002  0.4991663E+02  0.7546771E-02  0.1298226E+00
        -11   -1    0    0    0    0  0.00000000000E+00  0.00000000000E+00  0.45600000000E+02  0.45600000000E+02  0.00000000000E+00 0. -1.
         11   -1    0    0    0    0 -0.00000000000E+00 -0.00000000000E+00 -0.45600000000E+02  0.45600000000E+02  0.00000000000E+00 0.  1.
        -11    1    1    2    0    0  0.12654152335E+00  0.12467377478E+01  0.41264346473E+02  0.41283370231E+02  0.00000000000E+00 0. -1.
         11    1    1    2    0    0 -0.26270028942E+01 -0.22086579444E+01 -0.30867164035E+02  0.31057384463E+02  0.00000000000E+00 0.  1.
        -15    1    1    2    0    0  0.78230059704E+00  0.24234175199E+00 -0.14163022649E+02  0.14297540463E+02  0.17770000000E+01 0. -1.
         15    1    1    2    0    0  0.17181607738E+01  0.71957844461E+00  0.37658402102E+01  0.45617048426E+01  0.17770000000E+01 0.  1.
</event>
<event>
 6    1  0.3691007E-002  0.4776870E+02  0.7546771E-02  0.1307814E+00
        -11   -1    0    0    0    0  0.00000000000E+00  0.00000000000E+00  0.45600000000E+02  0.45600000000E+02  0.00000000000E+00 0. -1.
         11   -1    0    0    0    0 -0.00000000000E+00 -0.00000000000E+00 -0.45600000000E+02  0.45600000000E+02  0.00000000000E+00 0.  1.
        -11    1    1    2    0    0  0.15892940312E+01  0.26060689087E+00  0.43401429963E+02  0.43431300858E+02  0.00000000000E+00 0. -1.
         11    1    1    2    0    0 -0.32784116162E+01 -0.15069902860E+01 -0.41652423932E+02  0.41808413291E+02  0.00000000000E+00 0.  1.
        -15    1    1    2    0    0 -0.98575543799E+00 -0.78571341284E-01  0.78207708402E-01  0.20351247345E+01  0.17770000000E+01 0.  1.
         15    1    1    2    0    0  0.26748730230E+01  0.13249547364E+01 -0.18272137386E+01  0.39251611163E+01  0.17770000000E+01 0. -1.
</event>
<event>
 6    1  0.3691007E-002  0.4766226E+02  0.7546771E-02  0.1308304E+00
        -11   -1    0    0    0    0  0.00000000000E+00  0.00000000000E+00  0.45600000000E+02  0.45600000000E+02  0.00000000000E+00 0. -1.
         11   -1    0    0    0    0 -0.00000000000E+00 -0.00000000000E+00 -0.45600000000E+02  0.45600000000E+02  0.00000000000E+00 0.  1.
        -11    1    1    2    0    0  0.30591673269E+00 -0.97858172421E+00  0.19703167868E+02  0.19729825931E+02  0.00000000000E+00 0. -1.
         11    1    1    2    0    0  0.10338313869E+01 -0.95232136871E+00 -0.43515039498E+02  0.43537735194E+02  0.00000000000E+00 0.  1.
        -15    1    1    2    0    0  0.75579186966E-01 -0.23536670097E+01  0.22785182160E+02  0.22975371937E+02  0.17770000000E+01 0. -1.
         15    1    1    2    0    0 -0.14153273066E+01  0.42845701026E+01  0.10266894703E+01  0.49570669369E+01  0.17770000000E+01 0. -1.
</event>
<event>
 6    1  0.3691007E-002  0.4231861E+02  0.7546771E-02  0.1334991E+00
        -11   -1    0    0    0    0  0.00000000000E+00  0.00000000000E+00  0.45600000000E+02  0.45600000000E+02  0.00000000000E+00 0. -1.
         11   -1    0    0    0    0 -0.00000000000E+00 -0.00000000000E+00 -0.45600000000E+02  0.45600000000E+02  0.00000000000E+00 0.  1.
        -11    1    1    2    0    0 -0.11690019378E+01 -0.82822318731E-02  0.41291604652E+02  0.41308149908E+02  0.00000000000E+00 0. -1.
         11    1    1    2    0    0 -0.87997202231E+00 -0.37908781222E+01 -0.43287994048E+02  0.43462576274E+02  0.00000000000E+00 0.  1.
        -15    1    1    2    0    0  0.12173855556E+01  0.28755432646E+01  0.22604350705E+01  0.42447700015E+01  0.17770000000E+01 0. -1.
         15    1    1    2    0    0  0.83158840445E+00  0.92361708950E+00 -0.26404567426E+00  0.21845038156E+01  0.17770000000E+01 0.  1.
</event>
<event>
 6    1  0.3691007E-002  0.4065562E+02  0.7546771E-02  0.1344241E+00
        -11   -1    0    0    0    0  0.00000000000E+00  0.00000000000E+00  0.45600000000E+02  0.45600000000E+02  0.00000000000E+00 0. -1.
         11   -1    0    0    0    0 -0.00000000000E+00 -0.00000000000E+00 -0.45600000000E+02  0.45600000000E+02  0.00000000000E+00 0. -1.
        -11    1    1    2    0    0  0.55590100743E+00 -0.10446185140E+01  0.40632408925E+02  0.40649636024E+02  0.00000000000E+00 0. -1.
         11    1    1    2    0    0  0.24602737594E+01 -0.14174378605E+01 -0.40655738336E+02  0.40754768270E+02  0.00000000000E+00 0. -1.
        -15    1    1    2    0    0 -0.31827212778E+01  0.12804519057E+01 -0.37966565953E+01  0.54167889120E+01  0.17770000000E+01 0.  1.
         15    1    1    2    0    0  0.16654651093E+00  0.11816044688E+01  0.38199860059E+01  0.43788067948E+01  0.17770000000E+01 0. -1.
</event>
<event>
 6    1  0.3691007E-002  0.5022014E+02  0.7546771E-02  0.1296916E+00
        -11   -1    0    0    0    0  0.00000000000E+00  0.00000000000E+00  0.45600000000E+02  0.45600000000E+02  0.00000000000E+00 0. -1.
         11   -1    0    0    0    0 -0.00000000000E+00 -0.00000000000E+00 -0.45600000000E+02  0.45600000000E+02  0.00000000000E+00 0. -1.
        -11    1    1    2    0    0 -0.95156515619E+00  0.16557541608E+01  0.19520822346E+02  0.19614012929E+02  0.00000000000E+00 0. -1.
         11    1    1    2    0    0 -0.74124279629E+00  0.11246743157E+00 -0.40973003517E+02  0.40979862213E+02  0.00000000000E+00 0. -1.
        -15    1    1    2    0    0 -0.56907615069E+00 -0.71127109144E+01 -0.93335761961E+00  0.74123808363E+01  0.17770000000E+01 0. -1.
         15    1    1    2    0    0  0.22618841032E+01  0.53444893220E+01  0.22385538790E+02  0.23193744022E+02  0.17770000000E+01 0. -1.
</event>
<event>
 6    1  0.3691007E-002  0.4817770E+02  0.7546771E-02  0.1305944E+00
        -11   -1    0    0    0    0  0.00000000000E+00  0.00000000000E+00  0.45600000000E+02  0.45600000000E+02  0.00000000000E+00 0. -1.
         11   -1    0    0    0    0 -0.00000000000E+00 -0.00000000000E+00 -0.45600000000E+02  0.45600000000E+02  0.00000000000E+00 0. -1.
        -11    1    1    2    0    0 -0.25108733241E+01  0.14918691457E+01  0.32224857729E+02  0.32356940740E+02  0.00000000000E+00 0. -1.
         11    1    1    2    0    0 -0.16197438828E+01 -0.39801025213E+01 -0.42807162011E+02  0.43022295450E+02  0.00000000000E+00 0. -1.
        -15    1    1    2    0    0 -0.72977766303E+00  0.14850966207E+01  0.10255758555E+02  0.10539278910E+02  0.17770000000E+01 0. -1.
         15    1    1    2    0    0  0.48603948700E+01  0.10031367550E+01  0.32654572767E+00  0.52814849004E+01  0.17770000000E+01 0.  1.
</event>
<event>
 6    1  0.3691007E-002  0.4660654E+02  0.7546771E-02  0.1313247E+00
        -11   -1    0    0    0    0  0.00000000000E+00  0.00000000000E+00  0.45600000000E+02  0.45600000000E+02  0.00000000000E+00 0.  1.
         11   -1    0    0    0    0 -0.00000000000E+00 -0.00000000000E+00 -0.45600000000E+02  0.45600000000E+02  0.00000000000E+00 0. -1.
        -11    1    1    2    0    0  0.87024244748E+00  0.37364518960E+00  0.30721264726E+02  0.30735859171E+02  0.00000000000E+00 0.  1.
         11    1    1    2    0    0  0.31935777720E+00  0.16015077553E+01 -0.44563552463E+02  0.44593463922E+02  0.00000000000E+00 0. -1.
        -15    1    1    2    0    0 -0.33375155253E+01 -0.26592153915E+01  0.10451220632E+02  0.11427868484E+02  0.17770000000E+01 0. -1.
         15    1    1    2    0    0  0.21479153006E+01  0.68406244662E+00  0.33910671048E+01  0.44428084225E+01  0.17770000000E+01 0.  1.
</event>
<event>
 6    1  0.3691007E-002  0.4609221E+02  0.7546771E-02  0.1315710E+00
        -11   -1    0    0    0    0  0.00000000000E+00  0.00000000000E+00  0.45600000000E+02  0.45600000000E+02  0.00000000000E+00 0.  1.
         11   -1    0    0    0    0 -0.00000000000E+00 -0.00000000000E+00 -0.45600000000E+02  0.45600000000E+02  0.00000000000E+00 0.  1.
        -11    1    1    2    0    0  0.24451040522E+01 -0.11073641636E+01  0.45027858602E+02  0.45107791339E+02  0.00000000000E+00 0.  1.
         11    1    1    2    0    0  0.53907292331E+00 -0.67927528238E-01 -0.22690777998E+02  0.22697282214E+02  0.00000000000E+00 0.  1.
        -15    1    1    2    0    0 -0.19976741845E+01 -0.18734298973E+01 -0.95092175251E+01  0.10054023506E+02  0.17770000000E+01 0. -1.
         15    1    1    2    0    0 -0.98650279096E+00  0.30487215891E+01 -0.12827863079E+02  0.13340902940E+02  0.17770000000E+01 0.  1.
</event>
<event>
 6    1  0.3691007E-002  0.4614548E+02  0.7546771E-02  0.1315454E+00
        -11   -1    0    0    0    0  0.00000000000E+00  0.00000000000E+00  0.45600000000E+02  0.45600000000E+02  0.00000000000E+00 0. -1.
         11   -1    0    0    0    0 -0.00000000000E+00 -0.00000000000E+00 -0.45600000000E+02  0.45600000000E+02  0.00000000000E+00 0. -1.
        -11    1    1    2    0    0  0.56159982601E+00 -0.16600713785E+00  0.32593714013E+02  0.32598974614E+02  0.00000000000E+00 0. -1.
         11    1    1    2    0    0 -0.13795409823E+01 -0.61274820790E+00 -0.45029229944E+02  0.45054524113E+02  0.00000000000E+00 0. -1.
        -15    1    1    2    0    0  0.17109456691E+01  0.78065848790E+00  0.32809960211E+01  0.41784478755E+01  0.17770000000E+01 0. -1.
         15    1    1    2    0    0 -0.89300451273E+00 -0.19031421480E-02  0.91545199098E+01  0.93680533976E+01  0.17770000000E+01 0.  1.
</event>
<event>
 6    1  0.3691007E-002  0.4722807E+02  0.7546771E-02  0.1310319E+00
        -11   -1    0    0    0    0  0.00000000000E+00  0.00000000000E+00  0.45600000000E+02  0.45600000000E+02  0.00000000000E+00 0. -1.
         11   -1    0    0    0    0 -0.00000000000E+00 -0.00000000000E+00 -0.45600000000E+02  0.45600000000E+02  0.00000000000E+00 0.  1.
        -11    1    1    2    0    0 -0.42282005830E+00  0.61264143797E+00  0.17230402887E+02  0.17246474712E+02  0.00000000000E+00 0. -1.
         11    1    1    2    0    0 -0.20960434520E+01 -0.25521413260E+01 -0.43847734957E+02  0.43971930642E+02  0.00000000000E+00 0.  1.
        -15    1    1    2    0    0 -0.42679242818E+00 -0.13798585706E+01  0.24739957555E+02  0.24845711708E+02  0.17770000000E+01 0. -1.
         15    1    1    2    0    0  0.29456559385E+01  0.33193584587E+01  0.18773745148E+01  0.51358829381E+01  0.17770000000E+01 0. -1.
</event>
<event>
 6    1  0.3691007E-002  0.4753584E+02  0.7546771E-02  0.1308889E+00
        -11   -1    0    0    0    0  0.00000000000E+00  0.00000000000E+00  0.45600000000E+02  0.45600000000E+02  0.00000000000E+00 0. -1.
         11   -1    0    0    0    0 -0.00000000000E+00 -0.00000000000E+00 -0.45600000000E+02  0.45600000000E+02  0.00000000000E+00 0. -1.
        -11    1    1    2    0    0 -0.38733901353E+00  0.90419383373E+00  0.43653074783E+02  0.43664156192E+02  0.00000000000E+00 0. -1.
         11    1    1    2    0    0  0.11053228154E+00 -0.11230184904E+01 -0.42573186650E+02  0.42588139305E+02  0.00000000000E+00 0. -1.
        -15    1    1    2    0    0  0.19290293933E+00 -0.63607858244E+00  0.94539028352E+00  0.21197403839E+01  0.17770000000E+01 0. -1.
         15    1    1    2    0    0  0.83903792657E-01  0.85490323912E+00 -0.20252784166E+01  0.28279641192E+01  0.17770000000E+01 0. -1.
</event>
<event>
 6    1  0.3691007E-002  0.4578200E+02  0.7546771E-02  0.1317214E+00
        -11   -1    0    0    0    0  0.00000000000E+00  0.00000000000E+00  0.45600000000E+02  0.45600000000E+02  0.00000000000E+00 0.  1.
         11   -1    0    0    0    0 -0.00000000000E+00 -0.00000000000E+00 -0.45600000000E+02  0.45600000000E+02  0.00000000000E+00 0.  1.
        -11    1    1    2    0    0  0.52855818201E+00 -0.25088093561E+00  0.65446301674E+01  0.65707304787E+01  0.00000000000E+00 0.  1.
         11    1    1    2    0    0 -0.21802122430E+01 -0.59556362378E+01 -0.44973015726E+02  0.45418003830E+02  0.00000000000E+00 0.  1.
        -15    1    1    2    0    0  0.18120811563E+01  0.20329846931E+01  0.15314126131E+02  0.15655569394E+02  0.17770000000E+01 0.  1.
         15    1    1    2    0    0 -0.16042709526E+00  0.41735324803E+01  0.23114259427E+02  0.23555696298E+02  0.17770000000E+01 0. -1.
</event>
<event>
 6    1  0.3691007E-002  0.4751964E+02  0.7546771E-02  0.1308964E+00
        -11   -1    0    0    0    0  0.00000000000E+00  0.00000000000E+00  0.45600000000E+02  0.45600000000E+02  0.00000000000E+00 0.  1.
         11   -1    0    0    0    0 -0.00000000000E+00 -0.00000000000E+00 -0.45600000000E+02  0.45600000000E+02  0.00000000000E+00 0.  1.
        -11    1    1    2    0    0  0.10855762521E+01  0.41073946060E+00  0.30957096195E+02  0.30978847421E+02  0.00000000000E+00 0.  1.
         11    1    1    2    0    0  0.33989817862E+00  0.53985874741E+00 -0.43675704281E+02  0.43680363125E+02  0.00000000000E+00 0.  1.
        -15    1    1    2    0    0 -0.21803343418E+01 -0.12829751437E+01  0.13908976698E+02  0.14248412011E+02  0.17770000000E+01 0.  1.
         15    1    1    2    0    0  0.75485991108E+00  0.33237693568E+00 -0.11903686111E+01  0.22923774434E+01  0.17770000000E+01 0. -1.
</event>
<event>
 6    1  0.3691007E-002  0.4770792E+02  0.7546771E-02  0.1308094E+00
        -11   -1    0    0    0    0  0.00000000000E+00  0.00000000000E+00  0.45600000000E+02  0.45600000000E+02  0.00000000000E+00 0.  1.
         11   -1    0    0    0    0 -0.00000000000E+00 -0.00000000000E+00 -0.45600000000E+02  0.45600000000E+02  0.00000000000E+00 0.  1.
        -11    1    1    2    0    0  0.12426552530E+01 -0.86903521350E+00  0.38477221675E+02  0.38507090283E+02  0.00000000000E+00 0.  1.
         11    1    1    2    0    0 -0.18549259462E+01 -0.59395540869E+00 -0.43448445166E+02  0.43492078826E+02  0.00000000000E+00 0.  1.
        -15    1    1    2    0    0  0.18435409963E+01 -0.14846143186E+01  0.46753187675E+01  0.55334489839E+01  0.17770000000E+01 0. -1.
         15    1    1    2    0    0 -0.12312703031E+01  0.29476049408E+01  0.29590472352E+00  0.36673819070E+01  0.17770000000E+01 0. -1.
</event>
<event>
 6    1  0.3691007E-002  0.4735870E+02  0.7546771E-02  0.1309710E+00
        -11   -1    0    0    0    0  0.00000000000E+00  0.00000000000E+00  0.45600000000E+02  0.45600000000E+02  0.00000000000E+00 0.  1.
         11   -1    0    0    0    0 -0.00000000000E+00 -0.00000000000E+00 -0.45600000000E+02  0.45600000000E+02  0.00000000000E+00 0.  1.
        -11    1    1    2    0    0 -0.18872892835E+01 -0.92329101933E+00  0.43790922130E+02  0.43841295466E+02  0.00000000000E+00 0.  1.
         11    1    1    2    0    0  0.16134529160E+01  0.19102529927E+01 -0.39157797036E+02  0.39237550452E+02  0.00000000000E+00 0.  1.
        -15    1    1    2    0    0  0.28146218923E+01 -0.46804174064E+00 -0.32869987790E+01  0.47014093037E+01  0.17770000000E+01 0.  1.
         15    1    1    2    0    0 -0.25407855249E+01 -0.51892023275E+00 -0.13461263152E+01  0.34197447782E+01  0.17770000000E+01 0. -1.
</event>
<event>
 6    1  0.3691007E-002  0.4799321E+02  0.7546771E-02  0.1306785E+00
        -11   -1    0    0    0    0  0.00000000000E+00  0.00000000000E+00  0.45600000000E+02  0.45600000000E+02  0.00000000000E+00 0. -1.
         11   -1    0    0    0    0 -0.00000000000E+00 -0.00000000000E+00 -0.45600000000E+02  0.45600000000E+02  0.00000000000E+00 0.  1.
        -11    1    1    2    0    0  0.97834002282E+00  0.20649388236E+01  0.43146332380E+02  0.43206794829E+02  0.00000000000E+00 0. -1.
         11    1    1    2    0    0 -0.12799429562E+01  0.52903182874E+00 -0.12351504966E+02  0.12428909991E+02  0.00000000000E+00 0.  1.
        -15    1    1    2    0    0 -0.35247667607E+01 -0.36661818594E+01 -0.30742539508E+02  0.31210997013E+02  0.17770000000E+01 0.  1.
         15    1    1    2    0    0  0.38263696940E+01  0.10722112071E+01 -0.52287906476E-01  0.43532981673E+01  0.17770000000E+01 0.  1.
</event>
<event>
 6    1  0.3691007E-002  0.4766869E+02  0.7546771E-02  0.1308275E+00
        -11   -1    0    0    0    0  0.00000000000E+00  0.00000000000E+00  0.45600000000E+02  0.45600000000E+02  0.00000000000E+00 0. -1.
         11   -1    0    0    0    0 -0.00000000000E+00 -0.00000000000E+00 -0.45600000000E+02  0.45600000000E+02  0.00000000000E+00 0. -1.
        -11    1    1    2    0    0  0.24403796325E+01 -0.14714767663E+01  0.37073330667E+02  0.37182691449E+02  0.00000000000E+00 0. -1.
         11    1    1    2    0    0 -0.46219955629E-01 -0.75881423401E+00 -0.43524672156E+02  0.43531310819E+02  0.00000000000E+00 0. -1.
        -15    1    1    2    0    0 -0.25280073759E+01  0.54326973731E-01 -0.36515847593E+00  0.31120479471E+01  0.17770000000E+01 0. -1.
         15    1    1    2    0    0  0.13384769900E+00  0.21759640266E+01  0.68164999654E+01  0.73739497849E+01  0.17770000000E+01 0.  1.
</event>
<event>
 6    1  0.3691007E-002  0.4630011E+02  0.7546771E-02  0.1314710E+00
        -11   -1    0    0    0    0  0.00000000000E+00  0.00000000000E+00  0.45600000000E+02  0.45600000000E+02  0.00000000000E+00 0. -1.
         11   -1    0    0    0    0 -0.00000000000E+00 -0.00000000000E+00 -0.45600000000E+02  0.45600000000E+02  0.00000000000E+00 0. -1.
        -11    1    1    2    0    0 -0.81377910176E+00  0.27909011887E+00  0.25915698211E+02  0.25929973804E+02  0.00000000000E+00 0. -1.
         11    1    1    2    0    0 -0.11717541344E+01 -0.12590981326E+01 -0.44866929996E+02  0.44899885781E+02  0.00000000000E+00 0. -1.
        -15    1    1    2    0    0  0.36838901949E+01 -0.47884837115E+00  0.14555157140E+02  0.15126489054E+02  0.17770000000E+01 0. -1.
         15    1    1    2    0    0 -0.16983569587E+01  0.14588563849E+01  0.43960746454E+01  0.52436513613E+01  0.17770000000E+01 0.  1.
</event>
<event>
 6    1  0.3691007E-002  0.4861974E+02  0.7546771E-02  0.1303947E+00
        -11   -1    0    0    0    0  0.00000000000E+00  0.00000000000E+00  0.45600000000E+02  0.45600000000E+02  0.00000000000E+00 0. -1.
         11   -1    0    0    0    0 -0.00000000000E+00 -0.00000000000E+00 -0.45600000000E+02  0.45600000000E+02  0.00000000000E+00 0.  1.
        -11    1    1    2    0    0 -0.28712747055E+01  0.24995128261E+01  0.42409748829E+02  0.42580260433E+02  0.00000000000E+00 0. -1.
         11    1    1    2    0    0  0.26571956607E+01  0.10088592471E+01 -0.39843693559E+02  0.39944942135E+02  0.00000000000E+00 0.  1.
        -15    1    1    2    0    0  0.13403314203E+01 -0.29929813025E+01  0.15377292652E+01  0.40344473830E+01  0.17770000000E+01 0. -1.
         15    1    1    2    0    0 -0.11262523755E+01 -0.51539077065E+00 -0.41037845356E+01  0.46403500487E+01  0.17770000000E+01 0. -1.
</event>
<event>
 6    1  0.3691007E-002  0.4651011E+02  0.7546771E-02  0.1313706E+00
        -11   -1    0    0    0    0  0.00000000000E+00  0.00000000000E+00  0.45600000000E+02  0.45600000000E+02  0.00000000000E+00 0.  1.
         11   -1    0    0    0    0 -0.00000000000E+00 -0.00000000000E+00 -0.45600000000E+02  0.45600000000E+02  0.00000000000E+00 0. -1.
        -11    1    1    2    0    0 -0.16089794052E+00  0.10748953433E+01  0.34605666520E+02  0.34622730156E+02  0.00000000000E+00 0.  1.
         11    1    1    2    0    0 -0.24905050613E+01 -0.20991682618E+01 -0.44571035530E+02  0.44689890703E+02  0.00000000000E+00 0. -1.
        -15    1    1    2    0    0  0.26206967647E+01  0.18790887734E+01  0.33275930050E+01  0.49628248365E+01  0.17770000000E+01 0.  1.
         15    1    1    2    0    0  0.30706237138E-01 -0.85481585488E+00  0.66377760054E+01  0.69245543046E+01  0.17770000000E+01 0.  1.
</event>
<event>
 6    1  0.3691007E-002  0.4901474E+02  0.7546771E-02  0.1302183E+00
        -11   -1    0    0    0    0  0.00000000000E+00  0.00000000000E+00  0.45600000000E+02  0.45600000000E+02  0.00000000000E+00 0.  1.
         11   -1    0    0    0    0 -0.00000000000E+00 -0.00000000000E+00 -0.45600000000E+02  0.45600000000E+02  0.00000000000E+00 0. -1.
        -11    1    1    2    0    0 -0.23485026754E+01 -0.26856419710E+01  0.42034131056E+02  0.42185261778E+02  0.00000000000E+00 0.  1.
         11    1    1    2    0    0 -0.67136897765E+00 -0.11422461786E+01 -0.38865225787E+02  0.38887803205E+02  0.00000000000E+00 0. -1.
        -15    1    1    2    0    0 -0.42569195663E+00 -0.19403291109E+01 -0.76378531693E+00  0.27725778097E+01  0.17770000000E+01 0. -1.
         15    1    1    2    0    0  0.34455636097E+01  0.57682172604E+01 -0.24051199516E+01  0.73543572074E+01  0.17770000000E+01 0. -1.
</event>
<event>
 6    1  0.3691007E-002  0.4203249E+02  0.7546771E-02  0.1336547E+00
        -11   -1    0    0    0    0  0.00000000000E+00  0.00000000000E+00  0.45600000000E+02  0.45600000000E+02  0.00000000000E+00 0. -1.
         11   -1    0    0    0    0 -0.00000000000E+00 -0.00000000000E+00 -0.45600000000E+02  0.45600000000E+02  0.00000000000E+00 0.  1.
        -11    1    1    2    0    0 -0.36392012838E+01 -0.10463504305E+00  0.41958152690E+02  0.42115808334E+02  0.00000000000E+00 0. -1.
         11    1    1    2    0    0 -0.16884900345E+00 -0.14489567519E+01 -0.42024440947E+02  0.42049751754E+02  0.00000000000E+00 0.  1.
        -15    1    1    2    0    0  0.21541143240E+01 -0.54987150581E+00  0.18165459068E+01  0.33764086283E+01  0.17770000000E+01 0.  1.
         15    1    1    2    0    0  0.16539359632E+01  0.21034633007E+01 -0.17502576501E+01  0.36580312833E+01  0.17770000000E+01 0. -1.
</event>
<event>
 6    1  0.3691007E-002  0.4954278E+02  0.7546771E-02  0.1299854E+00
        -11   -1    0    0    0    0  0.00000000000E+00  0.00000000000E+00  0.45600000000E+02  0.45600000000E+02  0.00000000000E+00 0. -1.
         11   -1    0    0    0    0 -0.00000000000E+00 -0.00000000000E+00 -0.45600000000E+02  0.45600000000E+02  0.00000000000E+00 0.  1.
        -11    1    1    2    0    0 -0.88422578243E+00 -0.12852431042E+01  0.34796736144E+02  0.34831688895E+02  0.00000000000E+00 0. -1.
         11    1    1    2    0    0  0.27366733602E+01  0.62087001088E+00 -0.41562597143E+02  0.41657224366E+02  0.00000000000E+00 0.  1.
        -15    1    1    2    0    0 -0.11050935206E+01  0.89137913978E+00  0.10370518872E+02  0.10617023083E+02  0.17770000000E+01 0. -1.
         15    1    1    2    0    0 -0.74735405713E+00 -0.22700604643E+00 -0.36046578729E+01  0.40940636552E+01  0.17770000000E+01 0. -1.
</event>
<event>
 6    1  0.3691007E-002  0.4687087E+02  0.7546771E-02  0.1311996E+00
        -11   -1    0    0    0    0  0.00000000000E+00  0.00000000000E+00  0.45600000000E+02  0.45600000000E+02  0.00000000000E+00 0. -1.
         11   -1    0    0    0    0 -0.00000000000E+00 -0.00000000000E+00 -0.45600000000E+02  0.45600000000E+02  0.00000000000E+00 0.  1.
        -11    1    1    2    0    0 -0.44452625942E+00  0.52842667241E+00  0.44323754717E+02  0.44329133429E+02  0.00000000000E+00 0. -1.
         11    1    1    2    0    0 -0.14455026023E+01  0.14749357574E+01 -0.34854813426E+02  0.34915940947E+02  0.00000000000E+00 0.  1.
        -15    1    1    2    0    0  0.25217416790E+01 -0.83647502416E+00 -0.91774058841E+01  0.97180954576E+01  0.17770000000E+01 0.  1.
         15    1    1    2    0    0 -0.63171281724E+00 -0.11668874056E+01 -0.29153540715E+00  0.22368301667E+01  0.17770000000E+01 0. -1.
</event>
<event>
 6    1  0.3691007E-002  0.4016275E+02  0.7546771E-02  0.1347082E+00
        -11   -1    0    0    0    0  0.00000000000E+00  0.00000000000E+00  0.45600000000E+02  0.45600000000E+02  0.00000000000E+00 0.  1.
         11   -1    0    0    0    0 -0.00000000000E+00 -0.00000000000E+00 -0.45600000000E+02  0.45600000000E+02  0.00000000000E+00 0.  1.
        -11    1    1    2    0    0  0.16010515085E+01 -0.21148043567E+01  0.38878946330E+02  0.38969324232E+02  0.00000000000E+00 0.  1.
         11    1    1    2    0    0  0.19182559296E+01  0.41883529384E+01 -0.41238039554E+02  0.41494552804E+02  0.00000000000E+00 0.  1.
        -15    1    1    2    0    0 -0.11841526463E+01 -0.15910415089E+01 -0.33616601620E+01  0.42886033412E+01  0.17770000000E+01 0.  1.
         15    1    1    2    0    0 -0.23351547918E+01 -0.48250707269E+00  0.57207533865E+01  0.64475196227E+01  0.17770000000E+01 0. -1.
</event>
<event>
 6    1  0.3691007E-002  0.4024315E+02  0.7546771E-02  0.1346615E+00
        -11   -1    0    0    0    0  0.00000000000E+00  0.00000000000E+00  0.45600000000E+02  0.45600000000E+02  0.00000000000E+00 0.  1.
         11   -1    0    0    0    0 -0.00000000000E+00 -0.00000000000E+00 -0.45600000000E+02  0.45600000000E+02  0.00000000000E+00 0.  1.
        -11    1    1    2    0    0  0.12535842766E+01 -0.12930437921E+00  0.39756959431E+02  0.39776928192E+02  0.00000000000E+00 0.  1.
         11    1    1    2    0    0  0.17182630877E+00  0.13065284064E+01 -0.40714988877E+02  0.40736308866E+02  0.00000000000E+00 0.  1.
        -15    1    1    2    0    0 -0.11817042384E+01  0.13466634304E+01 -0.40659070253E+01  0.47853167336E+01  0.17770000000E+01 0.  1.
         15    1    1    2    0    0 -0.24370634695E+00 -0.25238874577E+01  0.50239364717E+01  0.59014462087E+01  0.17770000000E+01 0.  1.
</event>
<event>
 6    1  0.3691007E-002  0.4579016E+02  0.7546771E-02  0.1317174E+00
        -11   -1    0    0    0    0  0.00000000000E+00  0.00000000000E+00  0.45600000000E+02  0.45600000000E+02  0.00000000000E+00 0.  1.
         11   -1    0    0    0    0 -0.00000000000E+00 -0.00000000000E+00 -0.45600000000E+02  0.45600000000E+02  0.00000000000E+00 0. -1.
        -11    1    1    2    0    0 -0.70962979939E+00 -0.28856454499E+00  0.16441766644E+02  0.16459603104E+02  0.00000000000E+00 0.  1.
         11    1    1    2    0    0  0.44874213414E+00 -0.51053660462E+00 -0.45404756745E+02  0.45409844221E+02  0.00000000000E+00 0. -1.
        -15    1    1    2    0    0 -0.27065084968E+00 -0.74420544284E+00  0.81898131936E+01  0.84177112548E+01  0.17770000000E+01 0.  1.
         15    1    1    2    0    0  0.53153851494E+00  0.15433065924E+01  0.20773176908E+02  0.20912841420E+02  0.17770000000E+01 0. -1.
</event>
<event>
 6    1  0.3691007E-002  0.4236604E+02  0.7546771E-02  0.1334734E+00
        -11   -1    0    0    0    0  0.00000000000E+00  0.00000000000E+00  0.45600000000E+02  0.45600000000E+02  0.00000000000E+00 0. -1.
         11   -1    0    0    0    0 -0.00000000000E+00 -0.00000000000E+00 -0.45600000000E+02  0.45600000000E+02  0.00000000000E+00 0.  1.
        -11    1    1    2    0    0 -0.22004217937E+00 -0.11142058838E+01  0.42453623544E+02  0.42468812384E+02  0.00000000000E+00 0. -1.
         11    1    1    2    0    0 -0.81213291982E+00 -0.20019737026E+01 -0.42271850496E+02  0.42327022136E+02  0.00000000000E+00 0.  1.
        -15    1    1    2    0    0  0.49061236978E+00  0.37496808520E+00  0.17509733014E+01  0.25700074055E+01  0.17770000000E+01 0.  1.
         15    1    1    2    0    0  0.54156272941E+00  0.27412115012E+01 -0.19327463494E+01  0.38341580738E+01  0.17770000000E+01 0.  1.
</event>
<event>
 6    1  0.3691007E-002  0.4727847E+02  0.7546771E-02  0.1310084E+00
        -11   -1    0    0    0    0  0.00000000000E+00  0.00000000000E+00  0.45600000000E+02  0.45600000000E+02  0.00000000000E+00 0. -1.
         11   -1    0    0    0    0 -0.00000000000E+00 -0.00000000000E+00 -0.45600000000E+02  0.45600000000E+02  0.00000000000E+00 0.  1.
        -11    1    1    2    0    0 -0.36095783743E+01 -0.17801373665E+01  0.43736746614E+02  0.43921531729E+02  0.00000000000E+00 0. -1.
         11    1    1    2    0    0 -0.15814117044E+01 -0.24285700230E+01 -0.23931800484E+02  0.24106635803E+02  0.00000000000E+00 0.  1.
        -15    1    1    2    0    0 -0.17237558791E+01  0.38568667310E+01 -0.10346684196E+02  0.11316287296E+02  0.17770000000E+01 0. -1.
         15    1    1    2    0    0  0.69147459579E+01  0.35184065847E+00 -0.94582619334E+01  0.11855545171E+02  0.17770000000E+01 0.  1.
</event>
<event>
 6    1  0.3691007E-002  0.2685449E+02  0.7546771E-02  0.1448269E+00
        -11   -1    0    0    0    0  0.00000000000E+00  0.00000000000E+00  0.45600000000E+02  0.45600000000E+02  0.00000000000E+00 0. -1.
         11   -1    0    0    0    0 -0.00000000000E+00 -0.00000000000E+00 -0.45600000000E+02  0.45600000000E+02  0.00000000000E+00 0. -1.
        -11    1    1    2    0    0 -0.14468597134E+01  0.47247606529E+01  0.19164791931E+02  0.19791564264E+02  0.00000000000E+00 0. -1.
         11    1    1    2    0    0  0.13337324508E+00 -0.94826990754E+00 -0.35249157997E+02  0.35262163061E+02  0.00000000000E+00 0. -1.
        -15    1    1    2    0    0  0.93383757332E+01 -0.10541018180E+02 -0.28005038707E+01  0.14467856667E+02  0.17770000000E+01 0.  1.
         15    1    1    2    0    0 -0.80248892648E+01  0.67645274347E+01  0.18884869936E+02  0.21678416009E+02  0.17770000000E+01 0. -1.
</event>
<event>
 6    1  0.3691007E-002  0.4594943E+02  0.7546771E-02  0.1316401E+00
        -11   -1    0    0    0    0  0.00000000000E+00  0.00000000000E+00  0.45600000000E+02  0.45600000000E+02  0.00000000000E+00 0.  1.
         11   -1    0    0    0    0 -0.00000000000E+00 -0.00000000000E+00 -0.45600000000E+02  0.45600000000E+02  0.00000000000E+00 0.  1.
        -11    1    1    2    0    0 -0.19155095248E+01  0.39324137838E+01  0.45038660877E+02  0.45250569372E+02  0.00000000000E+00 0.  1.
         11    1    1    2    0    0  0.27873267109E+00  0.55220408723E+00 -0.78454822784E+01  0.78698293143E+01  0.00000000000E+00 0.  1.
        -15    1    1    2    0    0 -0.10400773384E+00  0.94439250351E+00 -0.13281711804E+02  0.13433699872E+02  0.17770000000E+01 0.  1.
         15    1    1    2    0    0  0.17407845876E+01 -0.54290103745E+01 -0.23911466795E+02  0.24645901442E+02  0.17770000000E+01 0.  1.
</event>
<event>
 6    1  0.3691007E-002  0.4630558E+02  0.7546771E-02  0.1314684E+00
        -11   -1    0    0    0    0  0.00000000000E+00  0.00000000000E+00  0.45600000000E+02  0.45600000000E+02  0.00000000000E+00 0. -1.
         11   -1    0    0    0    0 -0.00000000000E+00 -0.00000000000E+00 -0.45600000000E+02  0.45600000000E+02  0.00000000000E+00 0. -1.
        -11    1    1    2    0    0 -0.60421688412E+00  0.65327553978E+00  0.44885597467E+02  0.44894417325E+02  0.00000000000E+00 0. -1.
         11    1    1    2    0    0 -0.74427150216E+00 -0.29512613410E+00 -0.28883727272E+02  0.28894822038E+02  0.00000000000E+00 0. -1.
        -15    1    1    2    0    0 -0.86689414606E+00  0.21222209845E+01 -0.49967178144E+01  0.57775639576E+01  0.17770000000E+01 0. -1.
         15    1    1    2    0    0  0.22153825323E+01 -0.24803703902E+01 -0.11005152381E+02  0.11633196679E+02  0.17770000000E+01 0. -1.
</event>
<event>
 6    1  0.3691007E-002  0.4646819E+02  0.7546771E-02  0.1313906E+00
        -11   -1    0    0    0    0  0.00000000000E+00  0.00000000000E+00  0.45600000000E+02  0.45600000000E+02  0.00000000000E+00 0. -1.
         11   -1    0    0    0    0 -0.00000000000E+00 -0.00000000000E+00 -0.45600000000E+02  0.45600000000E+02  0.00000000000E+00 0.  1.
        -11    1    1    2    0    0  0.15711460641E+01 -0.36918785402E+00  0.37226807285E+02  0.37261776397E+02  0.00000000000E+00 0. -1.
         11    1    1    2    0    0  0.10720116829E+01 -0.13738904665E+00 -0.44718749985E+02  0.44731808426E+02  0.00000000000E+00 0.  1.
        -15    1    1    2    0    0 -0.29768945438E+01  0.58869598054E-01  0.52490970313E+01  0.62909550466E+01  0.17770000000E+01 0.  1.
         15    1    1    2    0    0  0.33373679676E+00  0.44770730261E+00  0.22428456686E+01  0.29154601303E+01  0.17770000000E+01 0.  1.
</event>
<event>
 6    1  0.3691007E-002  0.4854713E+02  0.7546771E-02  0.1304274E+00
        -11   -1    0    0    0    0  0.00000000000E+00  0.00000000000E+00  0.45600000000E+02  0.45600000000E+02  0.00000000000E+00 0. -1.
         11   -1    0    0    0    0 -0.00000000000E+00 -0.00000000000E+00 -0.45600000000E+02  0.45600000000E+02  0.00000000000E+00 0.  1.
        -11    1    1    2    0    0 -0.56791702685E+00  0.62863758375E+00  0.38375001792E+02  0.38384351987E+02  0.00000000000E+00 0. -1.
         11    1    1    2    0    0 -0.33300684606E+01  0.21604773012E+01 -0.42467755698E+02  0.42652869682E+02  0.00000000000E+00 0.  1.
        -15    1    1    2    0    0  0.21933364919E+00  0.22061715867E+01  0.10610854279E+01  0.30329740528E+01  0.17770000000E+01 0. -1.
         15    1    1    2    0    0  0.36786518383E+01 -0.49952864716E+01  0.30316684779E+01  0.71298042779E+01  0.17770000000E+01 0. -1.
</event>
<event>
 6    1  0.3691007E-002  0.4035356E+02  0.7546771E-02  0.1345976E+00
        -11   -1    0    0    0    0  0.00000000000E+00  0.00000000000E+00  0.45600000000E+02  0.45600000000E+02  0.00000000000E+00 0.  1.
         11   -1    0    0    0    0 -0.00000000000E+00 -0.00000000000E+00 -0.45600000000E+02  0.45600000000E+02  0.00000000000E+00 0. -1.
        -11    1    1    2    0    0 -0.39492617476E+00 -0.49764875429E+00  0.40283725929E+02  0.40288735345E+02  0.00000000000E+00 0.  1.
         11    1    1    2    0    0  0.20798934741E+01 -0.29546323021E+00 -0.40385331137E+02  0.40439933561E+02  0.00000000000E+00 0. -1.
        -15    1    1    2    0    0  0.72401881748E+00 -0.25180726000E+01  0.36043931977E+01  0.47973192712E+01  0.17770000000E+01 0. -1.
         15    1    1    2    0    0 -0.24089861169E+01  0.33111845845E+01 -0.35027879900E+01  0.56740118229E+01  0.17770000000E+01 0.  1.
</event>
<event>
 6    1  0.3691007E-002  0.4847114E+02  0.7546771E-02  0.1304616E+00
        -11   -1    0    0    0    0  0.00000000000E+00  0.00000000000E+00  0.45600000000E+02  0.45600000000E+02  0.00000000000E+00 0.  1.
         11   -1    0    0    0    0 -0.00000000000E+00 -0.00000000000E+00 -0.45600000000E+02  0.45600000000E+02  0.00000000000E+00 0. -1.
        -11    1    1    2    0    0 -0.97751964369E+00  0.44934961754E+00  0.42715315330E+02  0.42728861716E+02  0.00000000000E+00 0.  1.
         11    1    1    2    0    0  0.42320121958E+00  0.33211334598E+00 -0.16270734784E+02  0.16279625578E+02  0.00000000000E+00 0. -1.
        -15    1    1    2    0    0  0.80852799928E+00  0.95309783328E+00  0.24010729128E+01  0.32380539122E+01  0.17770000000E+01 0.  1.
         15    1    1    2    0    0 -0.25420957516E+00 -0.17345607968E+01 -0.28845653460E+02  0.28953458795E+02  0.17770000000E+01 0. -1.
</event>
<event>
 6    1  0.3691007E-002  0.4619314E+02  0.7546771E-02  0.1315224E+00
        -11   -1    0    0    0    0  0.00000000000E+00  0.00000000000E+00  0.45600000000E+02  0.45600000000E+02  0.00000000000E+00 0. -1.
         11   -1    0    0    0    0 -0.00000000000E+00 -0.00000000000E+00 -0.45600000000E+02  0.45600000000E+02  0.00000000000E+00 0. -1.
        -11    1    1    2    0    0  0.11320206858E+01  0.13069969356E+01  0.23552458856E+02  0.23615842775E+02  0.00000000000E+00 0. -1.
         11    1    1    2    0    0 -0.13410476311E+01  0.10731882944E+00 -0.44986746611E+02  0.45006858330E+02  0.00000000000E+00 0. -1.
        -15    1    1    2    0    0 -0.13236851241E+01 -0.33674609124E+01  0.11648481695E+02  0.12326264240E+02  0.17770000000E+01 0.  1.
         15    1    1    2    0    0  0.15327120694E+01  0.19531451473E+01  0.97858060596E+01  0.10251034655E+02  0.17770000000E+01 0. -1.
</event>
<event>
 6    1  0.3691007E-002  0.4773426E+02  0.7546771E-02  0.1307973E+00
        -11   -1    0    0    0    0  0.00000000000E+00  0.00000000000E+00  0.45600000000E+02  0.45600000000E+02  0.00000000000E+00 0.  1.
         11   -1    0    0    0    0 -0.00000000000E+00 -0.00000000000E+00 -0.45600000000E+02  0.45600000000E+02  0.00000000000E+00 0.  1.
        -11    1    1    2    0    0 -0.36765001958E+00  0.91194243817E+00  0.40452692028E+02  0.40464640093E+02  0.00000000000E+00 0.  1.
         11    1    1    2    0    0 -0.96312703901E+00  0.70344187614E+00 -0.43449375884E+02  0.43465741785E+02  0.00000000000E+00 0.  1.
        -15    1    1    2    0    0  0.30500674385E+01 -0.20938332200E+01  0.18118643403E+01  0.44863827657E+01  0.17770000000E+01 0. -1.
         15    1    1    2    0    0 -0.17192903799E+01  0.47844890572E+00  0.11848195160E+01  0.27832353568E+01  0.17770000000E+01 0. -1.
</event>
<event>
 6    1  0.3691007E-002  0.4716658E+02  0.7546771E-02  0.1310607E+00
        -11   -1    0    0    0    0  0.00000000000E+00  0.00000000000E+00  0.45600000000E+02  0.45600000000E+02  0.00000000000E+00 0. -1.
         11   -1    0    0    0    0 -0.00000000000E+00 -0.00000000000E+00 -0.45600000000E+02  0.45600000000E+02  0.00000000000E+00 0.  1.
        -11    1    1    2    0    0 -0.15844715715E+01 -0.67417335205E+00  0.43999736793E+02  0.44033417965E+02  0.00000000000E+00 0. -1.
         11    1    1    2    0    0 -0.66089065967E+00  0.15691328358E+01 -0.28860858035E+02  0.28911037353E+02  0.00000000000E+00 0.  1.
        -15    1    1    2    0    0  0.58041705647E+01  0.12940314089E+00 -0.96227363718E+01  0.11378045764E+02  0.17770000000E+01 0.  1.
         15    1    1    2    0    0 -0.35588083336E+01 -0.10243626247E+01 -0.55161423860E+01  0.68774989178E+01  0.17770000000E+01 0.  1.
</event>
<event>
 6    1  0.3691007E-002  0.4883724E+02  0.7546771E-02  0.1302973E+00
        -11   -1    0    0    0    0  0.00000000000E+00  0.00000000000E+00  0.45600000000E+02  0.45600000000E+02  0.00000000000E+00 0. -1.
         11   -1    0    0    0    0 -0.00000000000E+00 -0.00000000000E+00 -0.45600000000E+02  0.45600000000E+02  0.00000000000E+00 0.  1.
        -11    1    1    2    0    0  0.11393831212E+01  0.15149469950E+00  0.42347159626E+02  0.42362755728E+02  0.00000000000E+00 0. -1.
         11    1    1    2    0    0  0.47562070020E+00  0.16588689273E+01 -0.36092359160E+02  0.36133591725E+02  0.00000000000E+00 0.  1.
        -15    1    1    2    0    0 -0.54708866306E+01 -0.26013584498E+01 -0.19536752434E+01  0.66084977314E+01  0.17770000000E+01 0. -1.
         15    1    1    2    0    0  0.38558828092E+01  0.79099482298E+00 -0.43011252220E+01  0.60951548154E+01  0.17770000000E+01 0.  1.
</event>
<event>
 6    1  0.3691007E-002  0.5252223E+02  0.7546771E-02  0.1287311E+00
        -11   -1    0    0    0    0  0.00000000000E+00  0.00000000000E+00  0.45600000000E+02  0.45600000000E+02  0.00000000000E+00 0.  1.
         11   -1    0    0    0    0 -0.00000000000E+00 -0.00000000000E+00 -0.45600000000E+02  0.45600000000E+02  0.00000000000E+00 0.  1.
        -11    1    1    2    0    0 -0.51993482210E+00 -0.73872115923E+00  0.35670906222E+02  0.35682342859E+02  0.00000000000E+00 0.  1.
         11    1    1    2    0    0  0.39094168558E+00 -0.30893634195E+01 -0.38552209094E+02  0.38677769168E+02  0.00000000000E+00 0.  1.
        -15    1    1    2    0    0  0.80321930731E+00  0.74171337835E+01 -0.41499528312E+01  0.87200270825E+01  0.17770000000E+01 0.  1.
         15    1    1    2    0    0 -0.67422617078E+00 -0.35890492048E+01  0.70312557034E+01  0.81198608910E+01  0.17770000000E+01 0. -1.
</event>
<event>
 6    1  0.3691007E-002  0.4616757E+02  0.7546771E-02  0.1315347E+00
        -11   -1    0    0    0    0  0.00000000000E+00  0.00000000000E+00  0.45600000000E+02  0.45600000000E+02  0.00000000000E+00 0. -1.
         11   -1    0    0    0    0 -0.00000000000E+00 -0.00000000000E+00 -0.45600000000E+02  0.45600000000E+02  0.00000000000E+00 0. -1.
        -11    1    1    2    0    0  0.33381308408E-01 -0.65354996758E+00  0.45027674814E+02  0.45032429881E+02  0.00000000000E+00 0. -1.
         11    1    1    2    0    0 -0.34588661832E+00  0.55869993183E+00 -0.32846552285E+02  0.32853124359E+02  0.00000000000E+00 0. -1.
        -15    1    1    2    0    0 -0.51834342890E-01 -0.18901387634E+01 -0.72091248746E+01  0.76618876134E+01  0.17770000000E+01 0. -1.
         15    1    1    2    0    0  0.36433965280E+00  0.19849887992E+01 -0.49719976545E+01  0.56525581458E+01  0.17770000000E+01 0. -1.
</event>
<event>
 6    1  0.3691007E-002  0.4040660E+02  0.7546771E-02  0.1345670E+00
        -11   -1    0    0    0    0  0.00000000000E+00  0.00000000000E+00  0.45600000000E+02  0.45600000000E+02  0.00000000000E+00 0.  1.
         11   -1    0    0    0    0 -0.00000000000E+00 -0.00000000000E+00 -0.45600000000E+02  0.45600000000E+02  0.00000000000E+00 0.  1.
        -11    1    1    2    0    0  0.68186225992E+01 -0.34311704724E+01  0.38848489783E+02  0.39591308432E+02  0.00000000000E+00 0.  1.
         11    1    1    2    0    0 -0.27698880748E+01  0.47622118569E+00 -0.41319413369E+02  0.41414888479E+02  0.00000000000E+00 0.  1.
        -15    1    1    2    0    0 -0.55599558863E+01  0.41682218110E+01  0.24003132482E+01  0.75634922630E+01  0.17770000000E+01 0.  1.
         15    1    1    2    0    0  0.15112213619E+01 -0.12132725242E+01  0.70610337709E-01  0.26303108262E+01  0.17770000000E+01 0. -1.
</event>
<event>
 6    1  0.3691007E-002  0.5090103E+02  0.7546771E-02  0.1294014E+00
        -11   -1    0    0    0    0  0.00000000000E+00  0.00000000000E+00  0.45600000000E+02  0.45600000000E+02  0.00000000000E+00 0.  1.
         11   -1    0    0    0    0 -0.00000000000E+00 -0.00000000000E+00 -0.45600000000E+02  0.45600000000E+02  0.00000000000E+00 0. -1.
        -11    1    1    2    0    0  0.24399128062E+01 -0.31282300046E+01  0.31695814758E+02  0.31943131823E+02  0.00000000000E+00 0.  1.
         11    1    1    2    0    0  0.22773938195E+01  0.36329042387E+00 -0.40232923378E+02  0.40298965571E+02  0.00000000000E+00 0. -1.
        -15    1    1    2    0    0 -0.15307721030E+01 -0.31589415572E+00 -0.44941837709E+01  0.50792193412E+01  0.17770000000E+01 0. -1.
         15    1    1    2    0    0 -0.31865345227E+01  0.30808337365E+01  0.13031292391E+02  0.13878683264E+02  0.17770000000E+01 0. -1.
</event>
<event>
 6    1  0.3691007E-002  0.4842898E+02  0.7546771E-02  0.1304806E+00
        -11   -1    0    0    0    0  0.00000000000E+00  0.00000000000E+00  0.45600000000E+02  0.45600000000E+02  0.00000000000E+00 0.  1.
         11   -1    0    0    0    0 -0.00000000000E+00 -0.00000000000E+00 -0.45600000000E+02  0.45600000000E+02  0.00000000000E+00 0. -1.
        -11    1    1    2    0    0 -0.15843590548E+00  0.58515675432E+00  0.40045327023E+02  0.40049915440E+02  0.00000000000E+00 0.  1.
         11    1    1    2    0    0 -0.62415262021E+00 -0.43191870442E+00 -0.42764285090E+02  0.42771020558E+02  0.00000000000E+00 0. -1.
        -15    1    1    2    0    0 -0.12339787357E+01  0.20030986035E+01 -0.11798963167E+01  0.31756876191E+01  0.17770000000E+01 0.  1.
         15    1    1    2    0    0  0.20165672614E+01 -0.21563366534E+01  0.38988543840E+01  0.52033763837E+01  0.17770000000E+01 0. -1.
</event>
<event>
 6    1  0.3691007E-002  0.4815373E+02  0.7546771E-02  0.1306053E+00
        -11   -1    0    0    0    0  0.00000000000E+00  0.00000000000E+00  0.45600000000E+02  0.45600000000E+02  0.00000000000E+00 0.  1.
         11   -1    0    0    0    0 -0.00000000000E+00 -0.00000000000E+00 -0.45600000000E+02  0.45600000000E+02  0.00000000000E+00 0.  1.
        -11    1    1    2    0    0 -0.38301080320E+00 -0.20139824942E+01  0.37893949817E+02  0.37949364362E+02  0.00000000000E+00 0.  1.
         11    1    1    2    0    0  0.21328792442E+01  0.91335977228E+00 -0.42983694680E+02  0.43046270550E+02  0.00000000000E+00 0.  1.
        -15    1    1    2    0    0 -0.33206628886E+01  0.18914716135E+01 -0.33844994611E+00  0.42280899057E+01  0.17770000000E+01 0.  1.
         15    1    1    2    0    0  0.15707944477E+01 -0.79084889165E+00  0.54281948094E+01  0.59762751823E+01  0.17770000000E+01 0. -1.
</event>
<event>
 6    1  0.3691007E-002  0.4919478E+02  0.7546771E-02  0.1301385E+00
        -11   -1    0    0    0    0  0.00000000000E+00  0.00000000000E+00  0.45600000000E+02  0.45600000000E+02  0.00000000000E+00 0.  1.
         11   -1    0    0    0    0 -0.00000000000E+00 -0.00000000000E+00 -0.45600000000E+02  0.45600000000E+02  0.00000000000E+00 0. -1.
        -11    1    1    2    0    0 -0.54492875395E+00  0.19259537409E+00  0.42001242084E+02  0.42005218449E+02  0.00000000000E+00 0.  1.
         11    1    1    2    0    0 -0.12720178581E+01  0.16346494170E+01 -0.40077933240E+02  0.40131419622E+02  0.00000000000E+00 0. -1.
        -15    1    1    2    0    0 -0.15488812073E+01 -0.17568344126E+01 -0.38118533521E+01  0.48138815031E+01  0.17770000000E+01 0. -1.
         15    1    1    2    0    0  0.33658278194E+01 -0.70410378526E-01  0.18885445076E+01  0.42494804257E+01  0.17770000000E+01 0.  1.
</event>
<event>
 6    1  0.3691007E-002  0.4693520E+02  0.7546771E-02  0.1311693E+00
        -11   -1    0    0    0    0  0.00000000000E+00  0.00000000000E+00  0.45600000000E+02  0.45600000000E+02  0.00000000000E+00 0. -1.
         11   -1    0    0    0    0 -0.00000000000E+00 -0.00000000000E+00 -0.45600000000E+02  0.45600000000E+02  0.00000000000E+00 0. -1.
        -11    1    1    2    0    0 -0.37113226442E+00  0.10163015842E+01  0.33451185516E+02  0.33468678201E+02  0.00000000000E+00 0. -1.
         11    1    1    2    0    0 -0.11183056661E+00 -0.97009177758E+00 -0.44254031896E+02  0.44264804565E+02  0.00000000000E+00 0. -1.
        -15    1    1    2    0    0 -0.14159960191E+01  0.59901042534E+00  0.10511746501E+02  0.10771183859E+02  0.17770000000E+01 0. -1.
         15    1    1    2    0    0  0.18989588502E+01 -0.64522023199E+00  0.29109987875E+00  0.26953333749E+01  0.17770000000E+01 0.  1.
</event>
<event>
 6    1  0.3691007E-002  0.3502185E+02  0.7546771E-02  0.1379846E+00
        -11   -1    0    0    0    0  0.00000000000E+00  0.00000000000E+00  0.45600000000E+02  0.45600000000E+02  0.00000000000E+00 0.  1.
         11   -1    0    0    0    0 -0.00000000000E+00 -0.00000000000E+00 -0.45600000000E+02  0.45600000000E+02  0.00000000000E+00 0.  1.
        -11    1    1    2    0    0 -0.12561656655E+01 -0.19964219237E+01  0.35424595541E+02  0.35503036799E+02  0.00000000000E+00 0.  1.
         11    1    1    2    0    0 -0.90691293910E+01  0.34203534672E+01 -0.33971128225E+02  0.35326837937E+02  0.00000000000E+00 0.  1.
        -15    1    1    2    0    0  0.10386941560E+02 -0.76803553576E+01 -0.35885214009E+01  0.13524482550E+02  0.17770000000E+01 0.  1.
         15    1    1    2    0    0 -0.61646503680E-01  0.62564238141E+01  0.21350540842E+01  0.68456427146E+01  0.17770000000E+01 0. -1.
</event>
<event>
 6    1  0.3691007E-002  0.3470260E+02  0.7546771E-02  0.1382095E+00
        -11   -1    0    0    0    0  0.00000000000E+00  0.00000000000E+00  0.45600000000E+02  0.45600000000E+02  0.00000000000E+00 0. -1.
         11   -1    0    0    0    0 -0.00000000000E+00 -0.00000000000E+00 -0.45600000000E+02  0.45600000000E+02  0.00000000000E+00 0.  1.
        -11    1    1    2    0    0  0.77462776180E+00  0.54216024670E+01  0.25972769676E+02  0.26543899226E+02  0.00000000000E+00 0. -1.
         11    1    1    2    0    0 -0.34622414668E+01  0.52817761449E+01 -0.35358018587E+02  0.35917596713E+02  0.00000000000E+00 0.  1.
        -15    1    1    2    0    0 -0.51775556850E+01 -0.44874073798E+01 -0.66709666501E+01  0.97264296076E+01  0.17770000000E+01 0. -1.
         15    1    1    2    0    0  0.78651693899E+01 -0.62159712321E+01  0.16056215561E+02  0.19012074454E+02  0.17770000000E+01 0.  1.
</event>
<event>
 6    1  0.3691007E-002  0.4791833E+02  0.7546771E-02  0.1307128E+00
        -11   -1    0    0    0    0  0.00000000000E+00  0.00000000000E+00  0.45600000000E+02  0.45600000000E+02  0.00000000000E+00 0.  1.
         11   -1    0    0    0    0 -0.00000000000E+00 -0.00000000000E+00 -0.45600000000E+02  0.45600000000E+02  0.00000000000E+00 0. -1.
        -11    1    1    2    0    0  0.15997558538E+00  0.10762056735E+01  0.41453696504E+02  0.41467972758E+02  0.00000000000E+00 0.  1.
         11    1    1    2    0    0 -0.10800624025E+01  0.88594609464E+00 -0.43259121798E+02  0.43281671110E+02  0.00000000000E+00 0. -1.
        -15    1    1    2    0    0 -0.96075921493E+00 -0.70020343299E+00 -0.10618885820E+01  0.23871907082E+01  0.17770000000E+01 0. -1.
         15    1    1    2    0    0  0.18808460321E+01 -0.12619483351E+01  0.28673138768E+01  0.40631654243E+01  0.17770000000E+01 0.  1.
</event>
<event>
 6    1  0.3691007E-002  0.4966037E+02  0.7546771E-02  0.1299340E+00
        -11   -1    0    0    0    0  0.00000000000E+00  0.00000000000E+00  0.45600000000E+02  0.45600000000E+02  0.00000000000E+00 0.  1.
         11   -1    0    0    0    0 -0.00000000000E+00 -0.00000000000E+00 -0.45600000000E+02  0.45600000000E+02  0.00000000000E+00 0.  1.
        -11    1    1    2    0    0  0.27573611274E+01 -0.25344966965E+00  0.41447240049E+02  0.41539631496E+02  0.00000000000E+00 0.  1.
         11    1    1    2    0    0 -0.60751408327E+00 -0.38920673894E+00 -0.32300249659E+02  0.32308306723E+02  0.00000000000E+00 0.  1.
        -15    1    1    2    0    0  0.27290350750E+01 -0.12287415278E+01  0.26189223360E+01  0.43559064941E+01  0.17770000000E+01 0.  1.
         15    1    1    2    0    0 -0.48788821192E+01  0.18713979364E+01 -0.11765912726E+02  0.12996155287E+02  0.17770000000E+01 0. -1.
</event>
<event>
 6    1  0.3691007E-002  0.4761739E+02  0.7546771E-02  0.1308512E+00
        -11   -1    0    0    0    0  0.00000000000E+00  0.00000000000E+00  0.45600000000E+02  0.45600000000E+02  0.00000000000E+00 0. -1.
         11   -1    0    0    0    0 -0.00000000000E+00 -0.00000000000E+00 -0.45600000000E+02  0.45600000000E+02  0.00000000000E+00 0. -1.
        -11    1    1    2    0    0 -0.90360534099E-01 -0.18503130179E+01  0.42449889442E+02  0.42490292266E+02  0.00000000000E+00 0. -1.
         11    1    1    2    0    0  0.50150430324E+00  0.51006657411E+00 -0.43576742880E+02  0.43582613443E+02  0.00000000000E+00 0. -1.
        -15    1    1    2    0    0  0.41434720718E+00 -0.77125663383E+00  0.10578105465E+01  0.22457098111E+01  0.17770000000E+01 0. -1.
         15    1    1    2    0    0 -0.82549097632E+00  0.21115030777E+01  0.69042891916E-01  0.28813844797E+01  0.17770000000E+01 0.  1.
</event>
<event>
 6    1  0.3691007E-002  0.4903814E+02  0.7546771E-02  0.1302079E+00
        -11   -1    0    0    0    0  0.00000000000E+00  0.00000000000E+00  0.45600000000E+02  0.45600000000E+02  0.00000000000E+00 0.  1.
         11   -1    0    0    0    0 -0.00000000000E+00 -0.00000000000E+00 -0.45600000000E+02  0.45600000000E+02  0.00000000000E+00 0.  1.
        -11    1    1    2    0    0  0.27232379570E+01 -0.16117514103E+00  0.42073513709E+02  0.42161861418E+02  0.00000000000E+00 0.  1.
         11    1    1    2    0    0  0.17469534313E+01  0.58316397190E+01 -0.35670487663E+02  0.36186234374E+02  0.00000000000E+00 0.  1.
        -15    1    1    2    0    0 -0.49232986916E+01 -0.59523324095E+01 -0.21514845564E+01  0.82131447032E+01  0.17770000000E+01 0.  1.
         15    1    1    2    0    0  0.45310730327E+00  0.28186783154E+00 -0.42515414900E+01  0.46387595048E+01  0.17770000000E+01 0. -1.
</event>
<event>
 6    1  0.3691007E-002  0.4637791E+02  0.7546771E-02  0.1314338E+00
        -11   -1    0    0    0    0  0.00000000000E+00  0.00000000000E+00  0.45600000000E+02  0.45600000000E+02  0.00000000000E+00 0. -1.
         11   -1    0    0    0    0 -0.00000000000E+00 -0.00000000000E+00 -0.45600000000E+02  0.45600000000E+02  0.00000000000E+00 0.  1.
        -11    1    1    2    0    0  0.31195868390E-01 -0.13993775688E+01  0.27248497406E+02  0.27284424891E+02  0.00000000000E+00 0. -1.
         11    1    1    2    0    0 -0.32033941493E+01 -0.59410982947E+00 -0.44703519472E+02  0.44822085558E+02  0.00000000000E+00 0.  1.
        -15    1    1    2    0    0 -0.55962825172E+00  0.20509476695E+01  0.11599713993E+02  0.11926049800E+02  0.17770000000E+01 0. -1.
         15    1    1    2    0    0  0.37318265326E+01 -0.57460271280E-01  0.58553080729E+01  0.71674397508E+01  0.17770000000E+01 0. -1.
</event>
<event>
 6    1  0.3691007E-002  0.4652997E+02  0.7546771E-02  0.1313612E+00
        -11   -1    0    0    0    0  0.00000000000E+00  0.00000000000E+00  0.45600000000E+02  0.45600000000E+02  0.00000000000E+00 0. -1.
         11   -1    0    0    0    0 -0.00000000000E+00 -0.00000000000E+00 -0.45600000000E+02  0.45600000000E+02  0.00000000000E+00 0.  1.
        -11    1    1    2    0    0 -0.46561409831E+00  0.13952739101E+01  0.44645804561E+02  0.44670028550E+02  0.00000000000E+00 0. -1.
         11    1    1    2    0    0  0.52383128432E+00  0.70332232314E+00 -0.39419165494E+02  0.39428919206E+02  0.00000000000E+00 0.  1.
        -15    1    1    2    0    0  0.10639389769E+01 -0.67901103839E+00 -0.17367333702E+01  0.27869327110E+01  0.17770000000E+01 0.  1.
         15    1    1    2    0    0 -0.11221561629E+01 -0.14195851948E+01 -0.34899056965E+01  0.43141195335E+01  0.17770000000E+01 0. -1.
</event>
<event>
 6    1  0.3691007E-002  0.4597769E+02  0.7546771E-02  0.1316264E+00
        -11   -1    0    0    0    0  0.00000000000E+00  0.00000000000E+00  0.45600000000E+02  0.45600000000E+02  0.00000000000E+00 0.  1.
         11   -1    0    0    0    0 -0.00000000000E+00 -0.00000000000E+00 -0.45600000000E+02  0.45600000000E+02  0.00000000000E+00 0.  1.
        -11    1    1    2    0    0  0.14790307601E+01 -0.17590449814E+00  0.26972554228E+02  0.27013647588E+02  0.00000000000E+00 0.  1.
         11    1    1    2    0    0 -0.17304652487E+01  0.57979269868E+00 -0.45185467578E+02  0.45222308099E+02  0.00000000000E+00 0.  1.
        -15    1    1    2    0    0 -0.12337466215E+01  0.31540693471E+00  0.13373652047E+02  0.13551159004E+02  0.17770000000E+01 0.  1.
         15    1    1    2    0    0  0.14851811101E+01 -0.71929513525E+00  0.48392613027E+01  0.54128853098E+01  0.17770000000E+01 0. -1.
</event>
<event>
 6    1  0.3691007E-002  0.4641599E+02  0.7546771E-02  0.1314156E+00
        -11   -1    0    0    0    0  0.00000000000E+00  0.00000000000E+00  0.45600000000E+02  0.45600000000E+02  0.00000000000E+00 0. -1.
         11   -1    0    0    0    0 -0.00000000000E+00 -0.00000000000E+00 -0.45600000000E+02  0.45600000000E+02  0.00000000000E+00 0.  1.
        -11    1    1    2    0    0 -0.43873528748E+00  0.99609073351E+00  0.44770782295E+02  0.44784010905E+02  0.00000000000E+00 0. -1.
         11    1    1    2    0    0 -0.33014488537E+01  0.23362894684E+01 -0.21341874468E+02  0.21721726883E+02  0.00000000000E+00 0.  1.
        -15    1    1    2    0    0  0.23137327026E+01 -0.43646093734E+01 -0.14481536966E+02  0.15403759798E+02  0.17770000000E+01 0.  1.
         15    1    1    2    0    0  0.14264514386E+01  0.10322291715E+01 -0.89473708617E+01  0.92905024141E+01  0.17770000000E+01 0. -1.
</event>
<event>
 6    1  0.3691007E-002  0.4606831E+02  0.7546771E-02  0.1315826E+00
        -11   -1    0    0    0    0  0.00000000000E+00  0.00000000000E+00  0.45600000000E+02  0.45600000000E+02  0.00000000000E+00 0. -1.
         11   -1    0    0    0    0 -0.00000000000E+00 -0.00000000000E+00 -0.45600000000E+02  0.45600000000E+02  0.00000000000E+00 0. -1.
        -11    1    1    2    0    0 -0.29503280156E+01 -0.12188659794E+01  0.45018658478E+02  0.45131692643E+02  0.00000000000E+00 0. -1.
         11    1    1    2    0    0  0.39444508208E+00 -0.84393172802E+00 -0.84067007655E+01  0.84581573315E+01  0.00000000000E+00 0. -1.
        -15    1    1    2    0    0 -0.17583853565E+01 -0.51509748602E+00 -0.20040980781E+02  0.20202868216E+02  0.17770000000E+01 0. -1.
         15    1    1    2    0    0  0.43142682900E+01  0.25778951934E+01 -0.16570976932E+02  0.17407281809E+02  0.17770000000E+01 0. -1.
</event>
<event>
 6    1  0.3691007E-002  0.4778188E+02  0.7546771E-02  0.1307754E+00
        -11   -1    0    0    0    0  0.00000000000E+00  0.00000000000E+00  0.45600000000E+02  0.45600000000E+02  0.00000000000E+00 0.  1.
         11   -1    0    0    0    0 -0.00000000000E+00 -0.00000000000E+00 -0.45600000000E+02  0.45600000000E+02  0.00000000000E+00 0. -1.
        -11    1    1    2    0    0  0.30285717986E+01 -0.12055053267E+01  0.43295579763E+02  0.43418115082E+02  0.00000000000E+00 0.  1.
         11    1    1    2    0    0  0.55752268463E+00  0.81829825509E+00 -0.36420708459E+02  0.36434165947E+02  0.00000000000E+00 0. -1.
        -15    1    1    2    0    0 -0.11396129971E+01 -0.11892486708E+01  0.11100499718E+01  0.26651397945E+01  0.17770000000E+01 0. -1.
         15    1    1    2    0    0 -0.24464814862E+01  0.15764557424E+01 -0.79849212760E+01  0.86825791763E+01  0.17770000000E+01 0. -1.
</event>
<event>
 6    1  0.3691007E-002  0.4637961E+02  0.7546771E-02  0.1314329E+00
        -11   -1    0    0    0    0  0.00000000000E+00  0.00000000000E+00  0.45600000000E+02  0.45600000000E+02  0.00000000000E+00 0.  1.
         11   -1    0    0    0    0 -0.00000000000E+00 -0.00000000000E+00 -0.45600000000E+02  0.45600000000E+02  0.00000000000E+00 0. -1.
        -11    1    1    2    0    0 -0.50646311624E+00 -0.10722793586E+01  0.44804697280E+02  0.44820388064E+02  0.00000000000E+00 0.  1.
         11    1    1    2    0    0  0.15615098585E+01  0.13938396424E+01 -0.16309139496E+02  0.16442905251E+02  0.00000000000E+00 0. -1.
        -15    1    1    2    0    0 -0.40572062199E+01 -0.31614509082E+00 -0.23018799126E+02  0.23443201834E+02  0.17770000000E+01 0. -1.
         15    1    1    2    0    0  0.30021594777E+01 -0.54151930390E-02 -0.54767586581E+01  0.64935048512E+01  0.17770000000E+01 0. -1.
</event>
<event>
 6    1  0.3691007E-002  0.4609575E+02  0.7546771E-02  0.1315693E+00
        -11   -1    0    0    0    0  0.00000000000E+00  0.00000000000E+00  0.45600000000E+02  0.45600000000E+02  0.00000000000E+00 0.  1.
         11   -1    0    0    0    0 -0.00000000000E+00 -0.00000000000E+00 -0.45600000000E+02  0.45600000000E+02  0.00000000000E+00 0. -1.
        -11    1    1    2    0    0  0.42686262274E+01  0.89157303847E+00  0.44892949637E+02  0.45104245914E+02  0.00000000000E+00 0.  1.
         11    1    1    2    0    0 -0.12602923742E+01  0.21689547362E+01 -0.20600062563E+02  0.20752235521E+02  0.00000000000E+00 0. -1.
        -15    1    1    2    0    0 -0.24052522239E+01 -0.91680032241E+00 -0.19641127252E+02  0.19888624131E+02  0.17770000000E+01 0. -1.
         15    1    1    2    0    0 -0.60308162941E+00 -0.21437274522E+01 -0.46517598217E+01  0.54548944334E+01  0.17770000000E+01 0.  1.
</event>
<event>
 6    1  0.3691007E-002  0.4707582E+02  0.7546771E-02  0.1311032E+00
        -11   -1    0    0    0    0  0.00000000000E+00  0.00000000000E+00  0.45600000000E+02  0.45600000000E+02  0.00000000000E+00 0.  1.
         11   -1    0    0    0    0 -0.00000000000E+00 -0.00000000000E+00 -0.45600000000E+02  0.45600000000E+02  0.00000000000E+00 0.  1.
        -11    1    1    2    0    0 -0.60410067882E+00  0.10510995437E+01  0.42243954829E+02  0.42261347204E+02  0.00000000000E+00 0.  1.
         11    1    1    2    0    0 -0.66560240078E+00  0.51030703188E+00 -0.44116203341E+02  0.44124175199E+02  0.00000000000E+00 0.  1.
        -15    1    1    2    0    0 -0.23779247130E+00 -0.44132074381E+00  0.68389849938E+00  0.19689477941E+01  0.17770000000E+01 0. -1.
         15    1    1    2    0    0  0.15074955509E+01 -0.11200858318E+01  0.11883500119E+01  0.28455298026E+01  0.17770000000E+01 0. -1.
</event>
<event>
 6    1  0.3691007E-002  0.4263088E+02  0.7546771E-02  0.1333308E+00
        -11   -1    0    0    0    0  0.00000000000E+00  0.00000000000E+00  0.45600000000E+02  0.45600000000E+02  0.00000000000E+00 0. -1.
         11   -1    0    0    0    0 -0.00000000000E+00 -0.00000000000E+00 -0.45600000000E+02  0.45600000000E+02  0.00000000000E+00 0. -1.
        -11    1    1    2    0    0 -0.44024884340E+00  0.81095140255E+00  0.42651222405E+02  0.42661202911E+02  0.00000000000E+00 0. -1.
         11    1    1    2    0    0  0.20642863742E+01 -0.17590126472E+01 -0.42534989159E+02  0.42621364437E+02  0.00000000000E+00 0. -1.
        -15    1    1    2    0    0  0.28386420842E+00 -0.14958919113E+01  0.39613924643E-01  0.23404208515E+01  0.17770000000E+01 0.  1.
         15    1    1    2    0    0 -0.19079017393E+01  0.24439531559E+01 -0.15584717039E+00  0.35770117998E+01  0.17770000000E+01 0.  1.
</event>
<event>
 6    1  0.3691007E-002  0.4717759E+02  0.7546771E-02  0.1310555E+00
        -11   -1    0    0    0    0  0.00000000000E+00  0.00000000000E+00  0.45600000000E+02  0.45600000000E+02  0.00000000000E+00 0.  1.
         11   -1    0    0    0    0 -0.00000000000E+00 -0.00000000000E+00 -0.45600000000E+02  0.45600000000E+02  0.00000000000E+00 0.  1.
        -11    1    1    2    0    0  0.32422429142E+00  0.16026513232E+01  0.43992032213E+02  0.44022409190E+02  0.00000000000E+00 0.  1.
         11    1    1    2    0    0  0.72670315138E+00 -0.14207238850E+01 -0.40197746359E+02  0.40229409220E+02  0.00000000000E+00 0.  1.
        -15    1    1    2    0    0 -0.15422080669E+01  0.18958786599E+01 -0.22723170620E+01  0.37807294858E+01  0.17770000000E+01 0.  1.
         15    1    1    2    0    0  0.49128062408E+00 -0.20778060981E+01 -0.15219687915E+01  0.31674521046E+01  0.17770000000E+01 0. -1.
</event>
<event>
 6    1  0.3691007E-002  0.4753290E+02  0.7546771E-02  0.1308902E+00
        -11   -1    0    0    0    0  0.00000000000E+00  0.00000000000E+00  0.45600000000E+02  0.45600000000E+02  0.00000000000E+00 0.  1.
         11   -1    0    0    0    0 -0.00000000000E+00 -0.00000000000E+00 -0.45600000000E+02  0.45600000000E+02  0.00000000000E+00 0. -1.
        -11    1    1    2    0    0  0.48396890632E+00 -0.41623418250E+00  0.43662436582E+02  0.43667102550E+02  0.00000000000E+00 0.  1.
         11    1    1    2    0    0 -0.18259240626E+01  0.10526923675E+01 -0.42387995734E+02  0.42440362184E+02  0.00000000000E+00 0. -1.
        -15    1    1    2    0    0 -0.50633620133E+00 -0.33591011279E+00 -0.16298895389E+01  0.24866605843E+01  0.17770000000E+01 0. -1.
         15    1    1    2    0    0  0.18482913576E+01 -0.30054807222E+00  0.35544869083E+00  0.26058746820E+01  0.17770000000E+01 0.  1.
</event>
<event>
 6    1  0.3691007E-002  0.4162838E+02  0.7546771E-02  0.1338769E+00
        -11   -1    0    0    0    0  0.00000000000E+00  0.00000000000E+00  0.45600000000E+02  0.45600000000E+02  0.00000000000E+00 0.  1.
         11   -1    0    0    0    0 -0.00000000000E+00 -0.00000000000E+00 -0.45600000000E+02  0.45600000000E+02  0.00000000000E+00 0. -1.
        -11    1    1    2    0    0  0.62847866735E+00  0.18129134864E+00  0.42361748529E+02  0.42366798208E+02  0.00000000000E+00 0.  1.
         11    1    1    2    0    0  0.72122998078E+00 -0.20372118396E+01 -0.40877721246E+02  0.40934807915E+02  0.00000000000E+00 0. -1.
        -15    1    1    2    0    0 -0.24252953035E+01  0.37267935303E+01 -0.12492949211E+00  0.47900296142E+01  0.17770000000E+01 0.  1.
         15    1    1    2    0    0  0.10755866554E+01 -0.18708730394E+01 -0.13590977906E+01  0.31083642623E+01  0.17770000000E+01 0. -1.
</event>
<event>
 6    1  0.3691007E-002  0.2065764E+02  0.7546771E-02  0.1523090E+00
        -11   -1    0    0    0    0  0.00000000000E+00  0.00000000000E+00  0.45600000000E+02  0.45600000000E+02  0.00000000000E+00 0. -1.
         11   -1    0    0    0    0 -0.00000000000E+00 -0.00000000000E+00 -0.45600000000E+02  0.45600000000E+02  0.00000000000E+00 0.  1.
        -11    1    1    2    0    0  0.66093521482E+01  0.13223160200E+01  0.24504766992E+02  0.25414870859E+02  0.00000000000E+00 0. -1.
         11    1    1    2    0    0 -0.32911318892E-01  0.55999980726E+00 -0.31215520211E+02  0.31220560292E+02  0.00000000000E+00 0.  1.
        -15    1    1    2    0    0 -0.14454046269E+02 -0.10328332895E+02 -0.44561827606E+01  0.18401337118E+02  0.17770000000E+01 0. -1.
         15    1    1    2    0    0  0.78776054399E+01  0.84460170682E+01  0.11166935979E+02  0.16163231730E+02  0.17770000000E+01 0.  1.
</event>
<event>
 6    1  0.3691007E-002  0.4635214E+02  0.7546771E-02  0.1314461E+00
        -11   -1    0    0    0    0  0.00000000000E+00  0.00000000000E+00  0.45600000000E+02  0.45600000000E+02  0.00000000000E+00 0.  1.
         11   -1    0    0    0    0 -0.00000000000E+00 -0.00000000000E+00 -0.45600000000E+02  0.45600000000E+02  0.00000000000E+00 0. -1.
        -11    1    1    2    0    0 -0.68392399584E+00 -0.76500299432E+00  0.44836117512E+02  0.44847858535E+02  0.00000000000E+00 0.  1.
         11    1    1    2    0    0 -0.32214156245E+01 -0.15033548503E+00 -0.18468812835E+02  0.18748257704E+02  0.00000000000E+00 0. -1.
        -15    1    1    2    0    0  0.84824350505E+00  0.55417840263E+00 -0.16383678592E+01  0.26208031189E+01  0.17770000000E+01 0. -1.
         15    1    1    2    0    0  0.30570961153E+01  0.36116007672E+00 -0.24728936817E+02  0.24983080642E+02  0.17770000000E+01 0. -1.
</event>
<event>
 6    1  0.3691007E-002  0.4791258E+02  0.7546771E-02  0.1307154E+00
        -11   -1    0    0    0    0  0.00000000000E+00  0.00000000000E+00  0.45600000000E+02  0.45600000000E+02  0.00000000000E+00 0.  1.
         11   -1    0    0    0    0 -0.00000000000E+00 -0.00000000000E+00 -0.45600000000E+02  0.45600000000E+02  0.00000000000E+00 0.  1.
        -11    1    1    2    0    0 -0.80020501789E+00 -0.17777836359E+01  0.43243492788E+02  0.43287417470E+02  0.00000000000E+00 0.  1.
         11    1    1    2    0    0  0.50424897627E+00  0.21329203649E+00 -0.40483922909E+02  0.40487624956E+02  0.00000000000E+00 0.  1.
        -15    1    1    2    0    0  0.17062963375E+00 -0.20750426064E+01 -0.17503407898E+01  0.32490518880E+01  0.17770000000E+01 0.  1.
         15    1    1    2    0    0  0.12532640787E+00  0.36395342058E+01 -0.10092290891E+01  0.41759056860E+01  0.17770000000E+01 0. -1.
</event>
<event>
 6    1  0.3691007E-002  0.2499325E+02  0.7546771E-02  0.1467992E+00
        -11   -1    0    0    0    0  0.00000000000E+00  0.00000000000E+00  0.45600000000E+02  0.45600000000E+02  0.00000000000E+00 0. -1.
         11   -1    0    0    0    0 -0.00000000000E+00 -0.00000000000E+00 -0.45600000000E+02  0.45600000000E+02  0.00000000000E+00 0.  1.
        -11    1    1    2    0    0  0.56712615118E+01 -0.15135515566E+01  0.21763029946E+02  0.22540708016E+02  0.00000000000E+00 0. -1.
         11    1    1    2    0    0  0.15981565805E+01 -0.56504135824E+00 -0.35726808735E+02  0.35766999295E+02  0.00000000000E+00 0.  1.
        -15    1    1    2    0    0  0.56516812591E+01 -0.38529778314E+01  0.16853838586E+02  0.18275572312E+02  0.17770000000E+01 0. -1.
         15    1    1    2    0    0 -0.12921099351E+02  0.59315707463E+01 -0.28900597973E+01  0.14616720378E+02  0.17770000000E+01 0.  1.
</event>
<event>
 6    1  0.3691007E-002  0.3634947E+02  0.7546771E-02  0.1370785E+00
        -11   -1    0    0    0    0  0.00000000000E+00  0.00000000000E+00  0.45600000000E+02  0.45600000000E+02  0.00000000000E+00 0.  1.
         11   -1    0    0    0    0 -0.00000000000E+00 -0.00000000000E+00 -0.45600000000E+02  0.45600000000E+02  0.00000000000E+00 0.  1.
        -11    1    1    2    0    0  0.30946261183E+01 -0.36966848885E+00  0.36471161535E+02  0.36604084326E+02  0.00000000000E+00 0.  1.
         11    1    1    2    0    0  0.59894303758E+00 -0.77491191087E+00 -0.36184933686E+02  0.36198185688E+02  0.00000000000E+00 0.  1.
        -15    1    1    2    0    0 -0.29272014563E+01 -0.72187022133E+01 -0.41278683643E+01  0.89930637852E+01  0.17770000000E+01 0.  1.
         15    1    1    2    0    0 -0.76636769957E+00  0.83632826131E+01  0.38416405152E+01  0.94046662017E+01  0.17770000000E+01 0.  1.
</event>
<event>
 6    1  0.3691007E-002  0.5519380E+02  0.7546771E-02  0.1276849E+00
        -11   -1    0    0    0    0  0.00000000000E+00  0.00000000000E+00  0.45600000000E+02  0.45600000000E+02  0.00000000000E+00 0.  1.
         11   -1    0    0    0    0 -0.00000000000E+00 -0.00000000000E+00 -0.45600000000E+02  0.45600000000E+02  0.00000000000E+00 0.  1.
        -11    1    1    2    0    0 -0.12364291564E+01 -0.18993852244E+01  0.35934802527E+02  0.36006200215E+02  0.00000000000E+00 0.  1.
         11    1    1    2    0    0  0.46446733925E+01  0.14069309869E+01 -0.30132913477E+02  0.30521220820E+02  0.00000000000E+00 0.  1.
        -15    1    1    2    0    0  0.24244396116E+01  0.17207852196E+01  0.84447019280E+01  0.91274163297E+01  0.17770000000E+01 0. -1.
         15    1    1    2    0    0 -0.58326838477E+01 -0.12283309822E+01 -0.14246590978E+02  0.15545162635E+02  0.17770000000E+01 0. -1.
</event>
<event>
 6    1  0.3691007E-002  0.4268532E+02  0.7546771E-02  0.1333017E+00
        -11   -1    0    0    0    0  0.00000000000E+00  0.00000000000E+00  0.45600000000E+02  0.45600000000E+02  0.00000000000E+00 0. -1.
         11   -1    0    0    0    0 -0.00000000000E+00 -0.00000000000E+00 -0.45600000000E+02  0.45600000000E+02  0.00000000000E+00 0.  1.
        -11    1    1    2    0    0 -0.65396456123E+00 -0.95149323223E+00  0.42386112255E+02  0.42401833936E+02  0.00000000000E+00 0. -1.
         11    1    1    2    0    0 -0.10186272866E+01  0.12851313143E+01 -0.42956450425E+02  0.42987740080E+02  0.00000000000E+00 0.  1.
        -15    1    1    2    0    0 -0.77014147728E+00 -0.88996118229E+00  0.14942018967E+01  0.26029823490E+01  0.17770000000E+01 0. -1.
         15    1    1    2    0    0  0.24427333251E+01  0.55632310023E+00 -0.92386372639E+00  0.32074436354E+01  0.17770000000E+01 0. -1.
</event>
<event>
 6    1  0.3691007E-002  0.4646992E+02  0.7546771E-02  0.1313898E+00
        -11   -1    0    0    0    0  0.00000000000E+00  0.00000000000E+00  0.45600000000E+02  0.45600000000E+02  0.00000000000E+00 0.  1.
         11   -1    0    0    0    0 -0.00000000000E+00 -0.00000000000E+00 -0.45600000000E+02  0.45600000000E+02  0.00000000000E+00 0. -1.
        -11    1    1    2    0    0  0.51435747488E+01 -0.76719417434E+00  0.44426741516E+02  0.44730082829E+02  0.00000000000E+00 0.  1.
         11    1    1    2    0    0 -0.26763482843E+00  0.77185786334E+00 -0.15655081766E+02  0.15676382812E+02  0.00000000000E+00 0. -1.
        -15    1    1    2    0    0 -0.51041957003E+01  0.33180448597E+01 -0.23288425906E+02  0.24136502349E+02  0.17770000000E+01 0. -1.
         15    1    1    2    0    0  0.22825577990E+00 -0.33227085487E+01 -0.54832338441E+01  0.66570320106E+01  0.17770000000E+01 0.  1.
</event>
<event>
 6    1  0.3691007E-002  0.4819469E+02  0.7546771E-02  0.1305867E+00
        -11   -1    0    0    0    0  0.00000000000E+00  0.00000000000E+00  0.45600000000E+02  0.45600000000E+02  0.00000000000E+00 0.  1.
         11   -1    0    0    0    0 -0.00000000000E+00 -0.00000000000E+00 -0.45600000000E+02  0.45600000000E+02  0.00000000000E+00 0.  1.
        -11    1    1    2    0    0  0.56973782077E+00  0.19409375064E+00  0.43001092995E+02  0.43005305165E+02  0.00000000000E+00 0.  1.
         11    1    1    2    0    0 -0.71944108851E+00  0.99998255103E+00 -0.41870407770E+02  0.41888525964E+02  0.00000000000E+00 0.  1.
        -15    1    1    2    0    0  0.30814521417E+00 -0.30312852941E+01 -0.12508497095E+01  0.37424588178E+01  0.17770000000E+01 0. -1.
         15    1    1    2    0    0 -0.15844194643E+00  0.18372089924E+01  0.12016448428E+00  0.25637100529E+01  0.17770000000E+01 0.  1.
</event>
<event>
 6    1  0.3691007E-002  0.4787245E+02  0.7546771E-02  0.1307338E+00
        -11   -1    0    0    0    0  0.00000000000E+00  0.00000000000E+00  0.45600000000E+02  0.45600000000E+02  0.00000000000E+00 0.  1.
         11   -1    0    0    0    0 -0.00000000000E+00 -0.00000000000E+00 -0.45600000000E+02  0.45600000000E+02  0.00000000000E+00 0.  1.
        -11    1    1    2    0    0  0.18349158473E+01 -0.53193925394E+00  0.37343036300E+02  0.37391873925E+02  0.00000000000E+00 0.  1.
         11    1    1    2    0    0  0.78431309733E+00  0.73888649432E-02 -0.43320449270E+02  0.43327549280E+02  0.00000000000E+00 0.  1.
        -15    1    1    2    0    0 -0.10457997796E+01 -0.84959851622E+00 -0.13841631647E+01  0.26247193153E+01  0.17770000000E+01 0.  1.
         15    1    1    2    0    0 -0.15734291650E+01  0.13741489052E+01  0.73615761348E+01  0.78558574796E+01  0.17770000000E+01 0.  1.
</event>
<event>
 6    1  0.3691007E-002  0.4713792E+02  0.7546771E-02  0.1310741E+00
        -11   -1    0    0    0    0  0.00000000000E+00  0.00000000000E+00  0.45600000000E+02  0.45600000000E+02  0.00000000000E+00 0.  1.
         11   -1    0    0    0    0 -0.00000000000E+00 -0.00000000000E+00 -0.45600000000E+02  0.45600000000E+02  0.00000000000E+00 0. -1.
        -11    1    1    2    0    0  0.56239335038E+00 -0.59774816255E-02  0.39312759248E+02  0.39316782189E+02  0.00000000000E+00 0.  1.
         11    1    1    2    0    0 -0.15376896643E+00 -0.17118882841E+01 -0.44028542102E+02  0.44062078094E+02  0.00000000000E+00 0. -1.
        -15    1    1    2    0    0 -0.14997308973E+01  0.24139439053E+01  0.45016383888E+01  0.56123787404E+01  0.17770000000E+01 0.  1.
         15    1    1    2    0    0  0.10911065133E+01 -0.69607813961E+00  0.21414446503E+00  0.22087609766E+01  0.17770000000E+01 0.  1.
</event>
<event>
 6    1  0.3691007E-002  0.4648019E+02  0.7546771E-02  0.1313849E+00
        -11   -1    0    0    0    0  0.00000000000E+00  0.00000000000E+00  0.45600000000E+02  0.45600000000E+02  0.00000000000E+00 0.  1.
         11   -1    0    0    0    0 -0.00000000000E+00 -0.00000000000E+00 -0.45600000000E+02  0.45600000000E+02  0.00000000000E+00 0.  1.
        -11    1    1    2    0    0  0.14683717494E+01 -0.23144987473E+00  0.44695101099E+02  0.44719813807E+02  0.00000000000E+00 0.  1.
         11    1    1    2    0    0  0.13554088013E+01  0.54268472605E+00 -0.31021429966E+02  0.31055768496E+02  0.00000000000E+00 0.  1.
        -15    1    1    2    0    0 -0.38860201107E+01 -0.89556882931E+00 -0.11763577006E+02  0.12547616060E+02  0.17770000000E+01 0. -1.
         15    1    1    2    0    0  0.10622395600E+01  0.58433397799E+00 -0.19100941273E+01  0.28768016365E+01  0.17770000000E+01 0.  1.
</event>
<event>
 6    1  0.3691007E-002  0.4585103E+02  0.7546771E-02  0.1316878E+00
        -11   -1    0    0    0    0  0.00000000000E+00  0.00000000000E+00  0.45600000000E+02  0.45600000000E+02  0.00000000000E+00 0. -1.
         11   -1    0    0    0    0 -0.00000000000E+00 -0.00000000000E+00 -0.45600000000E+02  0.45600000000E+02  0.00000000000E+00 0.  1.
        -11    1    1    2    0    0  0.36629565886E+00  0.70887774430E+00  0.45341952827E+02  0.45348973156E+02  0.00000000000E+00 0. -1.
         11    1    1    2    0    0  0.64554150347E+00 -0.28861596783E+00 -0.20920877457E+02  0.20932824381E+02  0.00000000000E+00 0.  1.
        -15    1    1    2    0    0  0.85313802322E+00 -0.47233679198E+00 -0.63850478887E+01  0.66990680003E+01  0.17770000000E+01 0. -1.
         15    1    1    2    0    0 -0.18649751855E+01  0.52075015509E-01 -0.18036027481E+02  0.18219134462E+02  0.17770000000E+01 0.  1.
</event>
<event>
 6    1  0.3691007E-002  0.4286374E+02  0.7546771E-02  0.1332065E+00
        -11   -1    0    0    0    0  0.00000000000E+00  0.00000000000E+00  0.45600000000E+02  0.45600000000E+02  0.00000000000E+00 0. -1.
         11   -1    0    0    0    0 -0.00000000000E+00 -0.00000000000E+00 -0.45600000000E+02  0.45600000000E+02  0.00000000000E+00 0.  1.
        -11    1    1    2    0    0  0.22897808374E+00  0.11661969533E+01  0.43176488648E+02  0.43192842211E+02  0.00000000000E+00 0. -1.
         11    1    1    2    0    0 -0.56104759729E+00  0.77676722576E+00 -0.42548801974E+02  0.42559589885E+02  0.00000000000E+00 0.  1.
        -15    1    1    2    0    0  0.15738851862E+01 -0.12615651249E+01 -0.14209232605E+01  0.30406270827E+01  0.17770000000E+01 0.  1.
         15    1    1    2    0    0 -0.12418156727E+01 -0.68139905419E+00  0.79323658712E+00  0.24069408217E+01  0.17770000000E+01 0. -1.
</event>
<event>
 6    1  0.3691007E-002  0.4765873E+02  0.7546771E-02  0.1308321E+00
        -11   -1    0    0    0    0  0.00000000000E+00  0.00000000000E+00  0.45600000000E+02  0.45600000000E+02  0.00000000000E+00 0.  1.
         11   -1    0    0    0    0 -0.00000000000E+00 -0.00000000000E+00 -0.45600000000E+02  0.45600000000E+02  0.00000000000E+00 0.  1.
        -11    1    1    2    0    0  0.11650318868E+01 -0.34718050802E+00  0.43524299396E+02  0.43541273195E+02  0.00000000000E+00 0.  1.
         11    1    1    2    0    0 -0.10245686149E+01  0.54443047421E+00 -0.41784789389E+02  0.41800894364E+02  0.00000000000E+00 0.  1.
        -15    1    1    2    0    0 -0.67803765839E+00  0.19483780341E+01 -0.11718965070E+01  0.29642844757E+01  0.17770000000E+01 0. -1.
         15    1    1    2    0    0  0.53757438652E+00 -0.21456280003E+01 -0.56761349972E+00  0.28935479643E+01  0.17770000000E+01 0. -1.
</event>
<event>
 6    1  0.3691007E-002  0.4710093E+02  0.7546771E-02  0.1310914E+00
        -11   -1    0    0    0    0  0.00000000000E+00  0.00000000000E+00  0.45600000000E+02  0.45600000000E+02  0.00000000000E+00 0.  1.
         11   -1    0    0    0    0 -0.00000000000E+00 -0.00000000000E+00 -0.45600000000E+02  0.45600000000E+02  0.00000000000E+00 0.  1.
        -11    1    1    2    0    0  0.73769478062E+00  0.20530687071E+01  0.38970930394E+02  0.39031944616E+02  0.00000000000E+00 0.  1.
         11    1    1    2    0    0 -0.97286556674E+00 -0.12903213717E+01 -0.44069451286E+02  0.44099069529E+02  0.00000000000E+00 0.  1.
        -15    1    1    2    0    0 -0.79900997575E+00  0.17393427346E+01  0.37293647395E+01  0.45529792938E+01  0.17770000000E+01 0.  1.
         15    1    1    2    0    0  0.10341807619E+01 -0.25020900700E+01  0.13691561526E+01  0.35160065610E+01  0.17770000000E+01 0. -1.
</event>
<event>
 6    1  0.3691007E-002  0.4753665E+02  0.7546771E-02  0.1308885E+00
        -11   -1    0    0    0    0  0.00000000000E+00  0.00000000000E+00  0.45600000000E+02  0.45600000000E+02  0.00000000000E+00 0.  1.
         11   -1    0    0    0    0 -0.00000000000E+00 -0.00000000000E+00 -0.45600000000E+02  0.45600000000E+02  0.00000000000E+00 0. -1.
        -11    1    1    2    0    0  0.89171930044E-01 -0.53617536386E+00  0.36055239611E+02  0.36059336364E+02  0.00000000000E+00 0.  1.
         11    1    1    2    0    0 -0.35527095276E+00 -0.13102351440E+01 -0.43642244176E+02  0.43663353173E+02  0.00000000000E+00 0. -1.
        -15    1    1    2    0    0  0.21104933172E+00 -0.28630311209E+01  0.42925519518E+01  0.54612471359E+01  0.17770000000E+01 0.  1.
         15    1    1    2    0    0  0.55049690990E-01  0.47094416287E+01  0.32944526138E+01  0.60160633264E+01  0.17770000000E+01 0.  1.
</event>
<event>
 6    1  0.3691007E-002  0.4638084E+02  0.7546771E-02  0.1314324E+00
        -11   -1    0    0    0    0  0.00000000000E+00  0.00000000000E+00  0.45600000000E+02  0.45600000000E+02  0.00000000000E+00 0.  1.
         11   -1    0    0    0    0 -0.00000000000E+00 -0.00000000000E+00 -0.45600000000E+02  0.45600000000E+02  0.00000000000E+00 0. -1.
        -11    1    1    2    0    0  0.73111361010E+00 -0.55452101719E+00  0.25758926344E+02  0.25775265412E+02  0.00000000000E+00 0.  1.
         11    1    1    2    0    0 -0.34113810246E+01  0.14185004696E+01 -0.44666627109E+02  0.44819161543E+02  0.00000000000E+00 0. -1.
        -15    1    1    2    0    0  0.13614599456E+01  0.28937319324E+01  0.10748585872E+02  0.11354165972E+02  0.17770000000E+01 0. -1.
         15    1    1    2    0    0  0.13188074690E+01 -0.37577113848E+01  0.81591148937E+01  0.92514070735E+01  0.17770000000E+01 0.  1.
</event>
<event>
 6    1  0.3691007E-002  0.4600701E+02  0.7546771E-02  0.1316122E+00
        -11   -1    0    0    0    0  0.00000000000E+00  0.00000000000E+00  0.45600000000E+02  0.45600000000E+02  0.00000000000E+00 0. -1.
         11   -1    0    0    0    0 -0.00000000000E+00 -0.00000000000E+00 -0.45600000000E+02  0.45600000000E+02  0.00000000000E+00 0.  1.
        -11    1    1    2    0    0  0.84721398606E+00 -0.17206237663E+01  0.45152272580E+02  0.45192986589E+02  0.00000000000E+00 0. -1.
         11    1    1    2    0    0 -0.68567317236E+00  0.12468306677E+01 -0.26883420369E+02  0.26921051710E+02  0.00000000000E+00 0.  1.
        -15    1    1    2    0    0  0.71633274430E+00 -0.57466711648E+00 -0.27202540269E+01  0.33765197861E+01  0.17770000000E+01 0. -1.
         15    1    1    2    0    0 -0.87787355800E+00  0.10484602150E+01 -0.15548598184E+02  0.15709441915E+02  0.17770000000E+01 0. -1.
</event>
<event>
 6    1  0.3691007E-002  0.4609227E+02  0.7546771E-02  0.1315710E+00
        -11   -1    0    0    0    0  0.00000000000E+00  0.00000000000E+00  0.45600000000E+02  0.45600000000E+02  0.00000000000E+00 0. -1.
         11   -1    0    0    0    0 -0.00000000000E+00 -0.00000000000E+00 -0.45600000000E+02  0.45600000000E+02  0.00000000000E+00 0.  1.
        -11    1    1    2    0    0  0.21466325065E+01 -0.71450436938E+00  0.45050962138E+02  0.45107734782E+02  0.00000000000E+00 0. -1.
         11    1    1    2    0    0 -0.23577714446E+00  0.10336552497E+01 -0.19930527554E+02  0.19958706436E+02  0.00000000000E+00 0.  1.
        -15    1    1    2    0    0  0.90436474495E+00  0.20145822101E+01 -0.67939059895E+01  0.73614743542E+01  0.17770000000E+01 0.  1.
         15    1    1    2    0    0 -0.28152201070E+01 -0.23337330905E+01 -0.18326528595E+02  0.18772084427E+02  0.17770000000E+01 0. -1.
</event>
<event>
 6    1  0.3691007E-002  0.4704803E+02  0.7546771E-02  0.1311162E+00
        -11   -1    0    0    0    0  0.00000000000E+00  0.00000000000E+00  0.45600000000E+02  0.45600000000E+02  0.00000000000E+00 0.  1.
         11   -1    0    0    0    0 -0.00000000000E+00 -0.00000000000E+00 -0.45600000000E+02  0.45600000000E+02  0.00000000000E+00 0. -1.
        -11    1    1    2    0    0  0.41588828956E+00  0.99333207578E+00  0.44138838795E+02  0.44151973476E+02  0.00000000000E+00 0.  1.
         11    1    1    2    0    0 -0.19028656541E+01 -0.13880310424E+01 -0.19101192207E+02  0.19245858557E+02  0.00000000000E+00 0. -1.
        -15    1    1    2    0    0  0.20236375642E+01 -0.20935161809E+01 -0.24394585718E+02  0.24631919543E+02  0.17770000000E+01 0. -1.
         15    1    1    2    0    0 -0.53666019963E+00  0.24882151475E+01 -0.64306086941E+00  0.31702484243E+01  0.17770000000E+01 0. -1.
</event>
<event>
 6    1  0.3691007E-002  0.4894471E+02  0.7546771E-02  0.1302494E+00
        -11   -1    0    0    0    0  0.00000000000E+00  0.00000000000E+00  0.45600000000E+02  0.45600000000E+02  0.00000000000E+00 0. -1.
         11   -1    0    0    0    0 -0.00000000000E+00 -0.00000000000E+00 -0.45600000000E+02  0.45600000000E+02  0.00000000000E+00 0.  1.
        -11    1    1    2    0    0  0.30163257668E+01 -0.28513242285E+00  0.37428481058E+02  0.37550908323E+02  0.00000000000E+00 0. -1.
         11    1    1    2    0    0  0.82459485377E+00  0.39726494331E+00 -0.42245378721E+02  0.42255293152E+02  0.00000000000E+00 0.  1.
        -15    1    1    2    0    0 -0.21614655243E+01  0.24330772056E+01  0.65002860271E+01  0.74835316085E+01  0.17770000000E+01 0. -1.
         15    1    1    2    0    0 -0.16794550962E+01 -0.25452097261E+01 -0.16833883641E+01  0.39102669160E+01  0.17770000000E+01 0. -1.
</event>
<event>
 6    1  0.3691007E-002  0.4772204E+02  0.7546771E-02  0.1308029E+00
        -11   -1    0    0    0    0  0.00000000000E+00  0.00000000000E+00  0.45600000000E+02  0.45600000000E+02  0.00000000000E+00 0.  1.
         11   -1    0    0    0    0 -0.00000000000E+00 -0.00000000000E+00 -0.45600000000E+02  0.45600000000E+02  0.00000000000E+00 0.  1.
        -11    1    1    2    0    0  0.27279452509E+01  0.22899076517E+01  0.24537971598E+02  0.24795108641E+02  0.00000000000E+00 0.  1.
         11    1    1    2    0    0  0.14144455447E+01  0.15166130369E+01 -0.43428469662E+02  0.43477957042E+02  0.00000000000E+00 0.  1.
        -15    1    1    2    0    0 -0.34631342620E+01 -0.40566240924E+01  0.19955566186E+02  0.20732386470E+02  0.17770000000E+01 0.  1.
         15    1    1    2    0    0 -0.67925653360E+00  0.25010340385E+00 -0.10650681220E+01  0.21945478476E+01  0.17770000000E+01 0.  1.
</event>
<event>
 6    1  0.3691007E-002  0.4738602E+02  0.7546771E-02  0.1309583E+00
        -11   -1    0    0    0    0  0.00000000000E+00  0.00000000000E+00  0.45600000000E+02  0.45600000000E+02  0.00000000000E+00 0. -1.
         11   -1    0    0    0    0 -0.00000000000E+00 -0.00000000000E+00 -0.45600000000E+02  0.45600000000E+02  0.00000000000E+00 0.  1.
        -11    1    1    2    0    0  0.85011992948E+00 -0.24221503257E+00  0.43805063752E+02  0.43813981585E+02  0.00000000000E+00 0. -1.
         11    1    1    2    0    0 -0.41084805192E+00 -0.35918456398E+01 -0.40202595680E+02  0.40364821945E+02  0.00000000000E+00 0.  1.
        -15    1    1    2    0    0  0.29087382358E+00  0.36540321294E+01 -0.21508545723E+01  0.46065673527E+01  0.17770000000E+01 0. -1.
         15    1    1    2    0    0 -0.73014570115E+00  0.18002854298E+00 -0.14516134994E+01  0.24146291170E+01  0.17770000000E+01 0.  1.
</event>
<event>
 6    1  0.3691007E-002  0.4928580E+02  0.7546771E-02  0.1300984E+00
        -11   -1    0    0    0    0  0.00000000000E+00  0.00000000000E+00  0.45600000000E+02  0.45600000000E+02  0.00000000000E+00 0.  1.
         11   -1    0    0    0    0 -0.00000000000E+00 -0.00000000000E+00 -0.45600000000E+02  0.45600000000E+02  0.00000000000E+00 0.  1.
        -11    1    1    2    0    0  0.38165505186E+01 -0.18927801103E+01  0.26800634474E+02  0.27137108959E+02  0.00000000000E+00 0.  1.
         11    1    1    2    0    0  0.15508202653E-01  0.47084143924E+01 -0.41648902801E+02  0.41914204169E+02  0.00000000000E+00 0.  1.
        -15    1    1    2    0    0  0.36965340164E+01 -0.47070267361E+01  0.12154773891E+01  0.63604700072E+01  0.17770000000E+01 0.  1.
         15    1    1    2    0    0 -0.75285927376E+01  0.18913924540E+01  0.13632790938E+02  0.15788216865E+02  0.17770000000E+01 0. -1.
</event>
<event>
 6    1  0.3691007E-002  0.4346794E+02  0.7546771E-02  0.1328880E+00
        -11   -1    0    0    0    0  0.00000000000E+00  0.00000000000E+00  0.45600000000E+02  0.45600000000E+02  0.00000000000E+00 0. -1.
         11   -1    0    0    0    0 -0.00000000000E+00 -0.00000000000E+00 -0.45600000000E+02  0.45600000000E+02  0.00000000000E+00 0.  1.
        -11    1    1    2    0    0  0.49176124518E+00  0.32308944505E+00  0.43057527453E+02  0.43061547653E+02  0.00000000000E+00 0. -1.
         11    1    1    2    0    0  0.19455216840E+00 -0.18819187936E+01 -0.43853870281E+02  0.43894662631E+02  0.00000000000E+00 0.  1.
        -15    1    1    2    0    0 -0.96569669165E+00  0.11208044513E+01  0.54291826221E+00  0.23751340926E+01  0.17770000000E+01 0.  1.
         15    1    1    2    0    0  0.27938327807E+00  0.43802489725E+00  0.25342456618E+00  0.18686556230E+01  0.17770000000E+01 0.  1.
</event>
<event>
 6    1  0.3691007E-002  0.4628753E+02  0.7546771E-02  0.1314771E+00
        -11   -1    0    0    0    0  0.00000000000E+00  0.00000000000E+00  0.45600000000E+02  0.45600000000E+02  0.00000000000E+00 0. -1.
         11   -1    0    0    0    0 -0.00000000000E+00 -0.00000000000E+00 -0.45600000000E+02  0.45600000000E+02  0.00000000000E+00 0.  1.
        -11    1    1    2    0    0  0.13984174073E+01 -0.76037909639E+00  0.44884255713E+02  0.44912472193E+02  0.00000000000E+00 0. -1.
         11    1    1    2    0    0  0.10634700967E+01  0.16586682006E+00 -0.28910425516E+02  0.28930454264E+02  0.00000000000E+00 0.  1.
        -15    1    1    2    0    0  0.80980588965E+00 -0.80824259701E+00 -0.97035801356E+01  0.99310743690E+01  0.17770000000E+01 0.  1.
         15    1    1    2    0    0 -0.32716933936E+01  0.14027548733E+01 -0.62702500612E+01  0.74259991736E+01  0.17770000000E+01 0.  1.
</event>
<event>
 6    1  0.3691007E-002  0.4774472E+02  0.7546771E-02  0.1307925E+00
        -11   -1    0    0    0    0  0.00000000000E+00  0.00000000000E+00  0.45600000000E+02  0.45600000000E+02  0.00000000000E+00 0.  1.
         11   -1    0    0    0    0 -0.00000000000E+00 -0.00000000000E+00 -0.45600000000E+02  0.45600000000E+02  0.00000000000E+00 0. -1.
        -11    1    1    2    0    0 -0.13084334539E+01 -0.59134336670E-01  0.43435539842E+02  0.43455282951E+02  0.00000000000E+00 0.  1.
         11    1    1    2    0    0  0.43901344981E+00  0.37703662982E+00 -0.42073325103E+02  0.42077304746E+02  0.00000000000E+00 0. -1.
        -15    1    1    2    0    0 -0.12054771896E+01  0.11101352950E+01 -0.66237119570E+00  0.25063998541E+01  0.17770000000E+01 0.  1.
         15    1    1    2    0    0  0.20748971937E+01 -0.14280375882E+01 -0.69984354332E+00  0.31610124490E+01  0.17770000000E+01 0.  1.
</event>
<event>
 6    1  0.3691007E-002  0.4818343E+02  0.7546771E-02  0.1305918E+00
        -11   -1    0    0    0    0  0.00000000000E+00  0.00000000000E+00  0.45600000000E+02  0.45600000000E+02  0.00000000000E+00 0. -1.
         11   -1    0    0    0    0 -0.00000000000E+00 -0.00000000000E+00 -0.45600000000E+02  0.45600000000E+02  0.00000000000E+00 0. -1.
        -11    1    1    2    0    0  0.33143247422E+00  0.13328802119E+01  0.42994638006E+02  0.43016570231E+02  0.00000000000E+00 0. -1.
         11    1    1    2    0    0 -0.63573650077E+00 -0.26196787086E+00 -0.33685620268E+02  0.33692637191E+02  0.00000000000E+00 0. -1.
        -15    1    1    2    0    0 -0.95049383168E+00 -0.21982887722E+01 -0.11075676269E+02  0.11470145852E+02  0.17770000000E+01 0.  1.
         15    1    1    2    0    0  0.12547978582E+01  0.11273764311E+01  0.17666585302E+01  0.30206467262E+01  0.17770000000E+01 0. -1.
</event>
<event>
 6    1  0.3691007E-002  0.4638824E+02  0.7546771E-02  0.1314288E+00
        -11   -1    0    0    0    0  0.00000000000E+00  0.00000000000E+00  0.45600000000E+02  0.45600000000E+02  0.00000000000E+00 0.  1.
         11   -1    0    0    0    0 -0.00000000000E+00 -0.00000000000E+00 -0.45600000000E+02  0.45600000000E+02  0.00000000000E+00 0. -1.
        -11    1    1    2    0    0 -0.60328427772E+00  0.13846543680E+01  0.44786295526E+02  0.44811756120E+02  0.00000000000E+00 0.  1.
         11    1    1    2    0    0  0.71522113968E+00 -0.39759036178E-02 -0.24929741178E+02  0.24939999043E+02  0.00000000000E+00 0. -1.
        -15    1    1    2    0    0  0.12530315785E+01 -0.39726821180E+01 -0.91970628378E+01  0.10251633294E+02  0.17770000000E+01 0.  1.
         15    1    1    2    0    0 -0.13649684405E+01  0.25920036536E+01 -0.10659491510E+02  0.11196611543E+02  0.17770000000E+01 0. -1.
</event>
<event>
 6    1  0.3691007E-002  0.4627204E+02  0.7546771E-02  0.1314845E+00
        -11   -1    0    0    0    0  0.00000000000E+00  0.00000000000E+00  0.45600000000E+02  0.45600000000E+02  0.00000000000E+00 0. -1.
         11   -1    0    0    0    0 -0.00000000000E+00 -0.00000000000E+00 -0.45600000000E+02  0.45600000000E+02  0.00000000000E+00 0.  1.
        -11    1    1    2    0    0 -0.58874615389E+00 -0.61739865624E-01  0.26844619886E+02  0.26851146171E+02  0.00000000000E+00 0. -1.
         11    1    1    2    0    0 -0.91124812420E+00  0.23711811432E+00 -0.44918095000E+02  0.44927962969E+02  0.00000000000E+00 0.  1.
        -15    1    1    2    0    0  0.40651069123E+00 -0.23881659476E+01  0.14102858327E+02  0.14419324864E+02  0.17770000000E+01 0. -1.
         15    1    1    2    0    0  0.10934835869E+01  0.22127876989E+01  0.39706167863E+01  0.50015659966E+01  0.17770000000E+01 0.  1.
</event>
<event>
 6    1  0.3691007E-002  0.4705851E+02  0.7546771E-02  0.1311113E+00
        -11   -1    0    0    0    0  0.00000000000E+00  0.00000000000E+00  0.45600000000E+02  0.45600000000E+02  0.00000000000E+00 0. -1.
         11   -1    0    0    0    0 -0.00000000000E+00 -0.00000000000E+00 -0.45600000000E+02  0.45600000000E+02  0.00000000000E+00 0.  1.
        -11    1    1    2    0    0  0.53141148511E+00 -0.51446239985E+00  0.44135294038E+02  0.44141491247E+02  0.00000000000E+00 0. -1.
         11    1    1    2    0    0 -0.46171005358E+00 -0.14232586577E+01 -0.33436271192E+02  0.33469733680E+02  0.00000000000E+00 0.  1.
        -15    1    1    2    0    0  0.15669132074E+01  0.60421797541E+00  0.95766338135E-01  0.24468748543E+01  0.17770000000E+01 0.  1.
         15    1    1    2    0    0 -0.16366146389E+01  0.13335030821E+01 -0.10794789184E+02  0.11141900218E+02  0.17770000000E+01 0.  1.
</event>
<event>
 6    1  0.3691007E-002  0.4896348E+02  0.7546771E-02  0.1302411E+00
        -11   -1    0    0    0    0  0.00000000000E+00  0.00000000000E+00  0.45600000000E+02  0.45600000000E+02  0.00000000000E+00 0. -1.
         11   -1    0    0    0    0 -0.00000000000E+00 -0.00000000000E+00 -0.45600000000E+02  0.45600000000E+02  0.00000000000E+00 0. -1.
        -11    1    1    2    0    0  0.25859338496E+00  0.65558422601E+00  0.32659889902E+02  0.32667492552E+02  0.00000000000E+00 0. -1.
         11    1    1    2    0    0 -0.29003322473E+01 -0.22954479393E+00 -0.42136192688E+02  0.42236516809E+02  0.00000000000E+00 0. -1.
        -15    1    1    2    0    0  0.33226569336E+01 -0.46250531374E+01  0.10012299014E+02  0.11654828449E+02  0.17770000000E+01 0.  1.
         15    1    1    2    0    0 -0.68091807133E+00  0.41990137053E+01 -0.53599622880E+00  0.46411621901E+01  0.17770000000E+01 0. -1.
</event>
<event>
 6    1  0.3691007E-002  0.4709598E+02  0.7546771E-02  0.1310937E+00
        -11   -1    0    0    0    0  0.00000000000E+00  0.00000000000E+00  0.45600000000E+02  0.45600000000E+02  0.00000000000E+00 0.  1.
         11   -1    0    0    0    0 -0.00000000000E+00 -0.00000000000E+00 -0.45600000000E+02  0.45600000000E+02  0.00000000000E+00 0. -1.
        -11    1    1    2    0    0  0.77995764538E+00  0.14555671490E+01  0.40086950861E+02  0.40120950125E+02  0.00000000000E+00 0.  1.
         11    1    1    2    0    0  0.82260034254E+00 -0.92939504355E+00 -0.44086549160E+02  0.44104016408E+02  0.00000000000E+00 0. -1.
        -15    1    1    2    0    0 -0.19299619185E+01 -0.13869698285E+01  0.39912354501E+01  0.49735427745E+01  0.17770000000E+01 0.  1.
         15    1    1    2    0    0  0.32740393057E+00  0.86079772298E+00  0.83628490159E-02  0.20014906922E+01  0.17770000000E+01 0. -1.
</event>
<event>
 6    1  0.3691007E-002  0.4681320E+02  0.7546771E-02  0.1312268E+00
        -11   -1    0    0    0    0  0.00000000000E+00  0.00000000000E+00  0.45600000000E+02  0.45600000000E+02  0.00000000000E+00 0. -1.
         11   -1    0    0    0    0 -0.00000000000E+00 -0.00000000000E+00 -0.45600000000E+02  0.45600000000E+02  0.00000000000E+00 0.  1.
        -11    1    1    2    0    0 -0.11729743125E+01 -0.33958224831E+00  0.44369997063E+02  0.44386797860E+02  0.00000000000E+00 0. -1.
         11    1    1    2    0    0 -0.51444369227E+00  0.11818954019E+01 -0.41844571557E+02  0.41864420428E+02  0.00000000000E+00 0.  1.
        -15    1    1    2    0    0  0.73097165522E+00  0.14949244316E+00 -0.16453814945E+01  0.25341027631E+01  0.17770000000E+01 0.  1.
         15    1    1    2    0    0  0.95644634960E+00 -0.99180559672E+00 -0.88004401242E+00  0.24146789487E+01  0.17770000000E+01 0. -1.
</event>
<event>
 6    1  0.3691007E-002  0.4664665E+02  0.7546771E-02  0.1313057E+00
        -11   -1    0    0    0    0  0.00000000000E+00  0.00000000000E+00  0.45600000000E+02  0.45600000000E+02  0.00000000000E+00 0.  1.
         11   -1    0    0    0    0 -0.00000000000E+00 -0.00000000000E+00 -0.45600000000E+02  0.45600000000E+02  0.00000000000E+00 0. -1.
        -11    1    1    2    0    0  0.61854604367E+00  0.53225167262E+00  0.40238122140E+02  0.40246395670E+02  0.00000000000E+00 0.  1.
         11    1    1    2    0    0 -0.10904713890E+01  0.66002005629E+00 -0.44535110791E+02  0.44553348331E+02  0.00000000000E+00 0. -1.
        -15    1    1    2    0    0 -0.13566381681E+00 -0.16203026152E+01  0.10556882960E+01  0.26298273735E+01  0.17770000000E+01 0.  1.
         15    1    1    2    0    0  0.60758916217E+00  0.42803088632E+00  0.32413003548E+01  0.37704286254E+01  0.17770000000E+01 0. -1.
</event>
<event>
 6    1  0.3691007E-002  0.4594234E+02  0.7546771E-02  0.1316435E+00
        -11   -1    0    0    0    0  0.00000000000E+00  0.00000000000E+00  0.45600000000E+02  0.45600000000E+02  0.00000000000E+00 0. -1.
         11   -1    0    0    0    0 -0.00000000000E+00 -0.00000000000E+00 -0.45600000000E+02  0.45600000000E+02  0.00000000000E+00 0. -1.
        -11    1    1    2    0    0  0.10509199926E+01 -0.12955352746E+00  0.45245268358E+02  0.45257657095E+02  0.00000000000E+00 0. -1.
         11    1    1    2    0    0  0.65671979235E+00 -0.16016274709E+01 -0.97029869319E+01  0.98561882511E+01  0.00000000000E+00 0. -1.
        -15    1    1    2    0    0 -0.31308379568E+01  0.12380062129E+01 -0.18702494727E+02  0.19086011729E+02  0.17770000000E+01 0.  1.
         15    1    1    2    0    0  0.14231981719E+01  0.49317478542E+00 -0.16839786699E+02  0.17000142925E+02  0.17770000000E+01 0. -1.
</event>
<event>
 6    1  0.3691007E-002  0.5569070E+02  0.7546771E-02  0.1274977E+00
        -11   -1    0    0    0    0  0.00000000000E+00  0.00000000000E+00  0.45600000000E+02  0.45600000000E+02  0.00000000000E+00 0. -1.
         11   -1    0    0    0    0 -0.00000000000E+00 -0.00000000000E+00 -0.45600000000E+02  0.45600000000E+02  0.00000000000E+00 0.  1.
        -11    1    1    2    0    0  0.58381144112E+00  0.62140763150E+00  0.35499058272E+02  0.35509296268E+02  0.00000000000E+00 0. -1.
         11    1    1    2    0    0 -0.82015893931E+00  0.53560003385E+00 -0.27548001275E+02  0.27565411340E+02  0.00000000000E+00 0.  1.
        -15    1    1    2    0    0 -0.62637006084E+01  0.72147932228E+01  0.52956210016E+01  0.11067453065E+02  0.17770000000E+01 0. -1.
         15    1    1    2    0    0  0.65000481066E+01 -0.83718008881E+01 -0.13246677998E+02  0.17057839327E+02  0.17770000000E+01 0.  1.
</event>
<event>
 6    1  0.3691007E-002  0.4680416E+02  0.7546771E-02  0.1312311E+00
        -11   -1    0    0    0    0  0.00000000000E+00  0.00000000000E+00  0.45600000000E+02  0.45600000000E+02  0.00000000000E+00 0. -1.
         11   -1    0    0    0    0 -0.00000000000E+00 -0.00000000000E+00 -0.45600000000E+02  0.45600000000E+02  0.00000000000E+00 0.  1.
        -11    1    1    2    0    0 -0.74307560617E-01  0.56011135210E+00  0.35879433078E+02  0.35883881679E+02  0.00000000000E+00 0. -1.
         11    1    1    2    0    0  0.22121080655E+01 -0.43340969404E+00 -0.44338579902E+02  0.44395843654E+02  0.00000000000E+00 0.  1.
        -15    1    1    2    0    0  0.16848780794E+00  0.22777448338E+01  0.51124508066E+01  0.58746397267E+01  0.17770000000E+01 0.  1.
         15    1    1    2    0    0 -0.23062883129E+01 -0.24044464918E+01  0.33466960174E+01  0.50456349400E+01  0.17770000000E+01 0.  1.
</event>
<event>
 6    1  0.3691007E-002  0.4597298E+02  0.7546771E-02  0.1316287E+00
        -11   -1    0    0    0    0  0.00000000000E+00  0.00000000000E+00  0.45600000000E+02  0.45600000000E+02  0.00000000000E+00 0. -1.
         11   -1    0    0    0    0 -0.00000000000E+00 -0.00000000000E+00 -0.45600000000E+02  0.45600000000E+02  0.00000000000E+00 0.  1.
        -11    1    1    2    0    0  0.57273471597E+00  0.32422867953E+00  0.45222233977E+02  0.45227022843E+02  0.00000000000E+00 0. -1.
         11    1    1    2    0    0  0.11516565079E+01  0.12860743112E+01 -0.98456314394E+01  0.99958370478E+01  0.00000000000E+00 0.  1.
        -15    1    1    2    0    0 -0.22592789605E+00  0.16857407646E+01 -0.11253101414E+02  0.11518801404E+02  0.17770000000E+01 0. -1.
         15    1    1    2    0    0 -0.14984633278E+01 -0.32960437553E+01 -0.24123501124E+02  0.24458338706E+02  0.17770000000E+01 0.  1.
</event>
<event>
 6    1  0.3881385E-002  0.5100897E+02  0.7546771E-02  0.1293559E+00
        -11   -1    0    0    0    0  0.00000000000E+00  0.00000000000E+00  0.45600000000E+02  0.45600000000E+02  0.00000000000E+00 0. -1.
         11   -1    0    0    0    0 -0.00000000000E+00 -0.00000000000E+00 -0.45600000000E+02  0.45600000000E+02  0.00000000000E+00 0.  1.
        -11    1    1    2    0    0  0.20725333775E+01  0.24541943141E+01  0.40062460381E+02  0.40191033777E+02  0.00000000000E+00 0. -1.
         11    1    1    2    0    0 -0.15157576177E+01  0.55807848058E-01 -0.38061579159E+02  0.38091789716E+02  0.00000000000E+00 0.  1.
        -15    1    1    2    0    0 -0.16141089999E+01 -0.34142418520E+01  0.44391648762E+01  0.60931362274E+01  0.17770000000E+01 0. -1.
         15    1    1    2    0    0  0.10573332401E+01  0.90423968985E+00 -0.64400460975E+01  0.68240402795E+01  0.17770000000E+01 0. -1.
</event>
<event>
 6    1  0.3691007E-002  0.4755717E+02  0.7546771E-02  0.1308790E+00
        -11   -1    0    0    0    0  0.00000000000E+00  0.00000000000E+00  0.45600000000E+02  0.45600000000E+02  0.00000000000E+00 0.  1.
         11   -1    0    0    0    0 -0.00000000000E+00 -0.00000000000E+00 -0.45600000000E+02  0.45600000000E+02  0.00000000000E+00 0. -1.
        -11    1    1    2    0    0  0.90578147619E+00 -0.74999153051E+00  0.32376255575E+02  0.32397605659E+02  0.00000000000E+00 0.  1.
         11    1    1    2    0    0 -0.42057737232E+01  0.20640359242E+01 -0.43390646871E+02  0.43642834610E+02  0.00000000000E+00 0. -1.
        -15    1    1    2    0    0  0.23947454989E+01 -0.19671287709E+01 -0.36249274253E+00  0.35907564097E+01  0.17770000000E+01 0.  1.
         15    1    1    2    0    0  0.90524674818E+00  0.65308437729E+00  0.11376884038E+02  0.11568803321E+02  0.17770000000E+01 0. -1.
</event>
<event>
 6    1  0.3691007E-002  0.4726321E+02  0.7546771E-02  0.1310155E+00
        -11   -1    0    0    0    0  0.00000000000E+00  0.00000000000E+00  0.45600000000E+02  0.45600000000E+02  0.00000000000E+00 0.  1.
         11   -1    0    0    0    0 -0.00000000000E+00 -0.00000000000E+00 -0.45600000000E+02  0.45600000000E+02  0.00000000000E+00 0. -1.
        -11    1    1    2    0    0 -0.19320873497E+00 -0.10171357061E+01  0.43924592432E+02  0.43936792270E+02  0.00000000000E+00 0.  1.
         11    1    1    2    0    0 -0.36066989802E+00  0.88943066139E+00 -0.40921795593E+02  0.40933049291E+02  0.00000000000E+00 0. -1.
        -15    1    1    2    0    0 -0.14715089481E+00 -0.16979024831E+01 -0.27260361608E+01  0.36733538324E+01  0.17770000000E+01 0. -1.
         15    1    1    2    0    0  0.70102952781E+00  0.18256075279E+01 -0.27676067832E+00  0.26568046066E+01  0.17770000000E+01 0. -1.
</event>
<event>
 6    1  0.3691007E-002  0.4851781E+02  0.7546771E-02  0.1304406E+00
        -11   -1    0    0    0    0  0.00000000000E+00  0.00000000000E+00  0.45600000000E+02  0.45600000000E+02  0.00000000000E+00 0.  1.
         11   -1    0    0    0    0 -0.00000000000E+00 -0.00000000000E+00 -0.45600000000E+02  0.45600000000E+02  0.00000000000E+00 0. -1.
        -11    1    1    2    0    0  0.11844286741E+00 -0.14769395853E+01  0.24255353109E+02  0.24300566530E+02  0.00000000000E+00 0.  1.
         11    1    1    2    0    0  0.11287956307E+01 -0.58472464520E+00 -0.42663251344E+02  0.42682187125E+02  0.00000000000E+00 0. -1.
        -15    1    1    2    0    0 -0.37015290154E+01 -0.15767395050E+01  0.18947872578E+02  0.19451658766E+02  0.17770000000E+01 0. -1.
         15    1    1    2    0    0  0.24542905173E+01  0.36384037355E+01 -0.53997434231E+00  0.47655875793E+01  0.17770000000E+01 0.  1.
</event>
<event>
 6    1  0.3691007E-002  0.5153058E+02  0.7546771E-02  0.1291378E+00
        -11   -1    0    0    0    0  0.00000000000E+00  0.00000000000E+00  0.45600000000E+02  0.45600000000E+02  0.00000000000E+00 0. -1.
         11   -1    0    0    0    0 -0.00000000000E+00 -0.00000000000E+00 -0.45600000000E+02  0.45600000000E+02  0.00000000000E+00 0. -1.
        -11    1    1    2    0    0 -0.10199185628E+01  0.10525228837E+01  0.34775497236E+02  0.34806367899E+02  0.00000000000E+00 0. -1.
         11    1    1    2    0    0  0.55049461533E+01 -0.58290800093E+01 -0.38850738612E+02  0.39669415129E+02  0.00000000000E+00 0. -1.
        -15    1    1    2    0    0 -0.15590403102E+00  0.16057058345E+01 -0.52765552599E+01  0.57967544112E+01  0.17770000000E+01 0. -1.
         15    1    1    2    0    0 -0.43291235595E+01  0.31708512912E+01  0.93517966361E+01  0.10927462561E+02  0.17770000000E+01 0.  1.
</event>
<event>
 6    1  0.3691007E-002  0.4665705E+02  0.7546771E-02  0.1313007E+00
        -11   -1    0    0    0    0  0.00000000000E+00  0.00000000000E+00  0.45600000000E+02  0.45600000000E+02  0.00000000000E+00 0. -1.
         11   -1    0    0    0    0 -0.00000000000E+00 -0.00000000000E+00 -0.45600000000E+02  0.45600000000E+02  0.00000000000E+00 0.  1.
        -11    1    1    2    0    0 -0.11477262511E+01  0.12296418276E+01  0.44511175762E+02  0.44542946269E+02  0.00000000000E+00 0. -1.
         11    1    1    2    0    0 -0.22864093288E+00  0.32361288103E+01 -0.34823204375E+02  0.34973995615E+02  0.00000000000E+00 0.  1.
        -15    1    1    2    0    0  0.55893245385E+00 -0.33075241071E+01 -0.37986611846E+01  0.53702585601E+01  0.17770000000E+01 0.  1.
         15    1    1    2    0    0  0.81743473014E+00 -0.11582465308E+01 -0.58893102029E+01  0.63127995557E+01  0.17770000000E+01 0. -1.
</event>
<event>
 6    1  0.3691007E-002  0.4584510E+02  0.7546771E-02  0.1316907E+00
        -11   -1    0    0    0    0  0.00000000000E+00  0.00000000000E+00  0.45600000000E+02  0.45600000000E+02  0.00000000000E+00 0.  1.
         11   -1    0    0    0    0 -0.00000000000E+00 -0.00000000000E+00 -0.45600000000E+02  0.45600000000E+02  0.00000000000E+00 0. -1.
        -11    1    1    2    0    0  0.96628489925E+00  0.10619665626E+00  0.45344484878E+02  0.45354903738E+02  0.00000000000E+00 0.  1.
         11    1    1    2    0    0 -0.11415003166E+01  0.35353667982E+00 -0.22545109586E+02  0.22576757460E+02  0.00000000000E+00 0. -1.
        -15    1    1    2    0    0 -0.80799688842E+00 -0.67596127547E+00 -0.60084312499E+01  0.63536412948E+01  0.17770000000E+01 0.  1.
         15    1    1    2    0    0  0.98321230577E+00  0.21622793939E+00 -0.16790944041E+02  0.16914697507E+02  0.17770000000E+01 0. -1.
</event>
<event>
 6    1  0.3691007E-002  0.4602458E+02  0.7546771E-02  0.1316037E+00
        -11   -1    0    0    0    0  0.00000000000E+00  0.00000000000E+00  0.45600000000E+02  0.45600000000E+02  0.00000000000E+00 0. -1.
         11   -1    0    0    0    0 -0.00000000000E+00 -0.00000000000E+00 -0.45600000000E+02  0.45600000000E+02  0.00000000000E+00 0.  1.
        -11    1    1    2    0    0 -0.15644504307E+00 -0.24586595734E+01  0.23989916348E+02  0.24116085261E+02  0.00000000000E+00 0. -1.
         11    1    1    2    0    0  0.10233570524E+01 -0.64262801214E+00 -0.45159258931E+02  0.45175423602E+02  0.00000000000E+00 0.  1.
        -15    1    1    2    0    0  0.55639269762E+00  0.67861675918E+00  0.11834401354E+02  0.11999203222E+02  0.17770000000E+01 0.  1.
         15    1    1    2    0    0 -0.14233047070E+01  0.24226708263E+01  0.93349412297E+01  0.99092879151E+01  0.17770000000E+01 0. -1.
</event>
<event>
 6    1  0.3691007E-002  0.4665431E+02  0.7546771E-02  0.1313020E+00
        -11   -1    0    0    0    0  0.00000000000E+00  0.00000000000E+00  0.45600000000E+02  0.45600000000E+02  0.00000000000E+00 0. -1.
         11   -1    0    0    0    0 -0.00000000000E+00 -0.00000000000E+00 -0.45600000000E+02  0.45600000000E+02  0.00000000000E+00 0. -1.
        -11    1    1    2    0    0 -0.23974989455E+00  0.31036351312E+01  0.44436795569E+02  0.44545693748E+02  0.00000000000E+00 0. -1.
         11    1    1    2    0    0 -0.15762994719E+00  0.68612286279E+00 -0.29888437782E+02  0.29896727661E+02  0.00000000000E+00 0. -1.
        -15    1    1    2    0    0 -0.26649661450E+01 -0.89233966498E+00 -0.36476416112E+01  0.49357201050E+01  0.17770000000E+01 0.  1.
         15    1    1    2    0    0  0.30623459867E+01 -0.28974183290E+01 -0.10900716176E+02  0.11821858486E+02  0.17770000000E+01 0. -1.
</event>
<event>
 6    1  0.3691007E-002  0.5394722E+02  0.7546771E-02  0.1281644E+00
        -11   -1    0    0    0    0  0.00000000000E+00  0.00000000000E+00  0.45600000000E+02  0.45600000000E+02  0.00000000000E+00 0. -1.
         11   -1    0    0    0    0 -0.00000000000E+00 -0.00000000000E+00 -0.45600000000E+02  0.45600000000E+02  0.00000000000E+00 0.  1.
        -11    1    1    2    0    0 -0.21226629202E+01  0.21776023543E+01  0.37128450718E+02  0.37252778455E+02  0.00000000000E+00 0. -1.
         11    1    1    2    0    0  0.11122717002E+01 -0.28412323164E+00 -0.30892053521E+02  0.30913376475E+02  0.00000000000E+00 0.  1.
        -15    1    1    2    0    0  0.97765877930E+00 -0.13534901846E+01 -0.14428860556E+02  0.14633437679E+02  0.17770000000E+01 0. -1.
         15    1    1    2    0    0  0.32732440737E-01 -0.53998893803E+00  0.81924633585E+01  0.84004073917E+01  0.17770000000E+01 0.  1.
</event>
<event>
 6    1  0.3691007E-002  0.4878135E+02  0.7546771E-02  0.1303223E+00
        -11   -1    0    0    0    0  0.00000000000E+00  0.00000000000E+00  0.45600000000E+02  0.45600000000E+02  0.00000000000E+00 0. -1.
         11   -1    0    0    0    0 -0.00000000000E+00 -0.00000000000E+00 -0.45600000000E+02  0.45600000000E+02  0.00000000000E+00 0.  1.
        -11    1    1    2    0    0 -0.24102687922E+01 -0.37540486566E+00  0.32435648477E+02  0.32527244220E+02  0.00000000000E+00 0. -1.
         11    1    1    2    0    0  0.11438010899E+01 -0.11395941897E+01 -0.42387911715E+02  0.42418651740E+02  0.00000000000E+00 0.  1.
        -15    1    1    2    0    0  0.50539519973E+01  0.39379836944E+01  0.19923249727E+01  0.69409822190E+01  0.17770000000E+01 0.  1.
         15    1    1    2    0    0 -0.37874842950E+01 -0.24229846391E+01  0.79599382659E+01  0.93131218205E+01  0.17770000000E+01 0. -1.
</event>
<event>
 6    1  0.3691007E-002  0.4144097E+02  0.7546771E-02  0.1339810E+00
        -11   -1    0    0    0    0  0.00000000000E+00  0.00000000000E+00  0.45600000000E+02  0.45600000000E+02  0.00000000000E+00 0.  1.
         11   -1    0    0    0    0 -0.00000000000E+00 -0.00000000000E+00 -0.45600000000E+02  0.45600000000E+02  0.00000000000E+00 0.  1.
        -11    1    1    2    0    0  0.72508872470E+00  0.11519068576E+01  0.41360053878E+02  0.41382444344E+02  0.00000000000E+00 0.  1.
         11    1    1    2    0    0 -0.41758506581E+01  0.29617335591E+01 -0.41357573842E+02  0.41673234918E+02  0.00000000000E+00 0.  1.
        -15    1    1    2    0    0  0.82206406661E+00 -0.18691723068E+01 -0.23662880637E+01  0.35953640487E+01  0.17770000000E+01 0. -1.
         15    1    1    2    0    0  0.26286978668E+01 -0.22444681099E+01  0.23638080278E+01  0.45489566896E+01  0.17770000000E+01 0.  1.
</event>
<event>
 6    1  0.3691007E-002  0.4863036E+02  0.7546771E-02  0.1303900E+00
        -11   -1    0    0    0    0  0.00000000000E+00  0.00000000000E+00  0.45600000000E+02  0.45600000000E+02  0.00000000000E+00 0. -1.
         11   -1    0    0    0    0 -0.00000000000E+00 -0.00000000000E+00 -0.45600000000E+02  0.45600000000E+02  0.00000000000E+00 0.  1.
        -11    1    1    2    0    0  0.51494267296E+01 -0.12564246624E+02  0.40345972535E+02  0.42569641632E+02  0.00000000000E+00 0. -1.
         11    1    1    2    0    0  0.10831532398E+01 -0.11955690923E+01 -0.15759848762E+02  0.15842204373E+02  0.00000000000E+00 0.  1.
        -15    1    1    2    0    0 -0.10160596096E+01 -0.13599022915E+01 -0.12295873435E+02  0.12539056739E+02  0.17770000000E+01 0.  1.
         15    1    1    2    0    0 -0.52165203599E+01  0.15119718008E+02 -0.12290250338E+02  0.20249097256E+02  0.17770000000E+01 0.  1.
</event>
<event>
 6    1  0.3691007E-002  0.4584071E+02  0.7546771E-02  0.1316928E+00
        -11   -1    0    0    0    0  0.00000000000E+00  0.00000000000E+00  0.45600000000E+02  0.45600000000E+02  0.00000000000E+00 0. -1.
         11   -1    0    0    0    0 -0.00000000000E+00 -0.00000000000E+00 -0.45600000000E+02  0.45600000000E+02  0.00000000000E+00 0.  1.
        -11    1    1    2    0    0 -0.15334453691E-01 -0.62194629761E+00  0.45355018417E+02  0.45359285135E+02  0.00000000000E+00 0. -1.
         11    1    1    2    0    0  0.22428789160E+00  0.52763970489E+00 -0.19938716320E+02  0.19946957593E+02  0.00000000000E+00 0.  1.
        -15    1    1    2    0    0 -0.84176342030E+00 -0.12912002144E+01 -0.86212430766E+01  0.89364044691E+01  0.17770000000E+01 0.  1.
         15    1    1    2    0    0  0.63280998239E+00  0.13855068071E+01 -0.16795059021E+02  0.16957352803E+02  0.17770000000E+01 0.  1.
</event>
<event>
 6    1  0.3691007E-002  0.4797579E+02  0.7546771E-02  0.1306865E+00
        -11   -1    0    0    0    0  0.00000000000E+00  0.00000000000E+00  0.45600000000E+02  0.45600000000E+02  0.00000000000E+00 0.  1.
         11   -1    0    0    0    0 -0.00000000000E+00 -0.00000000000E+00 -0.45600000000E+02  0.45600000000E+02  0.00000000000E+00 0. -1.
        -11    1    1    2    0    0 -0.18867029821E+01 -0.23480342699E+01  0.43119127487E+02  0.43224206972E+02  0.00000000000E+00 0.  1.
         11    1    1    2    0    0  0.78257103413E+00  0.44946015304E+01 -0.38241391041E+02  0.38512567418E+02  0.00000000000E+00 0. -1.
        -15    1    1    2    0    0  0.35304697271E+01  0.56519445434E+00 -0.18144968151E+01  0.43856343848E+01  0.17770000000E+01 0. -1.
         15    1    1    2    0    0 -0.24263377791E+01 -0.27117617148E+01 -0.30632396312E+01  0.50775912256E+01  0.17770000000E+01 0. -1.
</event>
<event>
 6    1  0.3691007E-002  0.2984471E+02  0.7546771E-02  0.1420247E+00
        -11   -1    0    0    0    0  0.00000000000E+00  0.00000000000E+00  0.45600000000E+02  0.45600000000E+02  0.00000000000E+00 0.  1.
         11   -1    0    0    0    0 -0.00000000000E+00 -0.00000000000E+00 -0.45600000000E+02  0.45600000000E+02  0.00000000000E+00 0. -1.
        -11    1    1    2    0    0  0.19848714478E+01 -0.12127193442E+01  0.37627771493E+02  0.37699596688E+02  0.00000000000E+00 0.  1.
         11    1    1    2    0    0  0.17552722980E+00 -0.66008935261E+00 -0.17781500446E+02  0.17794613957E+02  0.00000000000E+00 0. -1.
        -15    1    1    2    0    0 -0.41637974208E+01  0.97493987339E+01  0.31905967745E+01  0.11212743706E+02  0.17770000000E+01 0.  1.
         15    1    1    2    0    0  0.20033987432E+01 -0.78765900371E+01 -0.23036867822E+02  0.24493045649E+02  0.17770000000E+01 0. -1.
</event>
<event>
 6    1  0.3691007E-002  0.4721773E+02  0.7546771E-02  0.1310368E+00
        -11   -1    0    0    0    0  0.00000000000E+00  0.00000000000E+00  0.45600000000E+02  0.45600000000E+02  0.00000000000E+00 0.  1.
         11   -1    0    0    0    0 -0.00000000000E+00 -0.00000000000E+00 -0.45600000000E+02  0.45600000000E+02  0.00000000000E+00 0. -1.
        -11    1    1    2    0    0  0.41133794723E-01 -0.61631985482E+00  0.43977933069E+02  0.43982270737E+02  0.00000000000E+00 0.  1.
         11    1    1    2    0    0 -0.11781132778E+01  0.39422528700E+00 -0.31880521672E+02  0.31904717935E+02  0.00000000000E+00 0. -1.
        -15    1    1    2    0    0 -0.11136147310E+01 -0.11614573122E+01 -0.11882471466E+02  0.12121880135E+02  0.17770000000E+01 0. -1.
         15    1    1    2    0    0  0.22505942141E+01  0.13835518801E+01 -0.21493993113E+00  0.31911311937E+01  0.17770000000E+01 0. -1.
</event>
<event>
 6    1  0.3691007E-002  0.4729616E+02  0.7546771E-02  0.1310002E+00
        -11   -1    0    0    0    0  0.00000000000E+00  0.00000000000E+00  0.45600000000E+02  0.45600000000E+02  0.00000000000E+00 0.  1.
         11   -1    0    0    0    0 -0.00000000000E+00 -0.00000000000E+00 -0.45600000000E+02  0.45600000000E+02  0.00000000000E+00 0.  1.
        -11    1    1    2    0    0  0.55455972411E+00  0.20722229267E+00  0.43899848729E+02  0.43903840333E+02  0.00000000000E+00 0.  1.
         11    1    1    2    0    0 -0.20170802852E+00 -0.35194533574E+01 -0.35280062217E+02  0.35455747462E+02  0.00000000000E+00 0.  1.
        -15    1    1    2    0    0 -0.48881734550E+00  0.24673881967E+00  0.60676537548E+00  0.19559436759E+01  0.17770000000E+01 0.  1.
         15    1    1    2    0    0  0.13596564991E+00  0.30654922450E+01 -0.92265518872E+01  0.98844685284E+01  0.17770000000E+01 0.  1.
</event>
<event>
 6    1  0.7743739E-002  0.3763614E+02  0.7546771E-02  0.1362423E+00
        -11   -1    0    0    0    0  0.00000000000E+00  0.00000000000E+00  0.45600000000E+02  0.45600000000E+02  0.00000000000E+00 0. -1.
         11   -1    0    0    0    0 -0.00000000000E+00 -0.00000000000E+00 -0.45600000000E+02  0.45600000000E+02  0.00000000000E+00 0. -1.
        -11    1    1    2    0    0  0.28585763590E+01 -0.51856570744E+00  0.39175151665E+02  0.39282730012E+02  0.00000000000E+00 0. -1.
         11    1    1    2    0    0  0.64023174091E+01 -0.15750929483E+00 -0.36059779071E+02  0.36624065095E+02  0.00000000000E+00 0. -1.
        -15    1    1    2    0    0 -0.68868847175E+00  0.81518228021E+00  0.36708402720E+01  0.42156388915E+01  0.17770000000E+01 0.  1.
         15    1    1    2    0    0 -0.85722052963E+01 -0.13910727793E+00 -0.67862128655E+01  0.11077566002E+02  0.17770000000E+01 0. -1.
</event>
<event>
 6    1  0.3691007E-002  0.4918792E+02  0.7546771E-02  0.1301416E+00
        -11   -1    0    0    0    0  0.00000000000E+00  0.00000000000E+00  0.45600000000E+02  0.45600000000E+02  0.00000000000E+00 0.  1.
         11   -1    0    0    0    0 -0.00000000000E+00 -0.00000000000E+00 -0.45600000000E+02  0.45600000000E+02  0.00000000000E+00 0.  1.
        -11    1    1    2    0    0 -0.17271940741E+00 -0.18706510404E+01  0.37170683591E+02  0.37218125771E+02  0.00000000000E+00 0.  1.
         11    1    1    2    0    0 -0.27216401335E+00  0.14002128739E+01 -0.41987854797E+02  0.42012077070E+02  0.00000000000E+00 0.  1.
        -15    1    1    2    0    0  0.26012364455E+01 -0.24777399792E+01  0.64484901624E+01  0.75925213747E+01  0.17770000000E+01 0.  1.
         15    1    1    2    0    0 -0.21563530247E+01  0.29481781457E+01 -0.16313189567E+01  0.43772757835E+01  0.17770000000E+01 0. -1.
</event>
<event>
 6    1  0.3691007E-002  0.4735273E+02  0.7546771E-02  0.1309738E+00
        -11   -1    0    0    0    0  0.00000000000E+00  0.00000000000E+00  0.45600000000E+02  0.45600000000E+02  0.00000000000E+00 0.  1.
         11   -1    0    0    0    0 -0.00000000000E+00 -0.00000000000E+00 -0.45600000000E+02  0.45600000000E+02  0.00000000000E+00 0. -1.
        -11    1    1    2    0    0 -0.18126650623E+00  0.52726275406E+00  0.36136036602E+02  0.36140337642E+02  0.00000000000E+00 0.  1.
         11    1    1    2    0    0  0.23552327981E+01 -0.30090496881E+01 -0.43680444066E+02  0.43847265540E+02  0.00000000000E+00 0. -1.
        -15    1    1    2    0    0 -0.32336238198E+01 -0.10735139942E+01  0.52381351120E+01  0.64965024248E+01  0.17770000000E+01 0.  1.
         15    1    1    2    0    0  0.10596575279E+01  0.35553009282E+01  0.23062723519E+01  0.47158943932E+01  0.17770000000E+01 0. -1.
</event>
<event>
 6    1  0.3691007E-002  0.4658291E+02  0.7546771E-02  0.1313360E+00
        -11   -1    0    0    0    0  0.00000000000E+00  0.00000000000E+00  0.45600000000E+02  0.45600000000E+02  0.00000000000E+00 0. -1.
         11   -1    0    0    0    0 -0.00000000000E+00 -0.00000000000E+00 -0.45600000000E+02  0.45600000000E+02  0.00000000000E+00 0.  1.
        -11    1    1    2    0    0 -0.16445769341E+01  0.23451787685E+00  0.44586149140E+02  0.44617085596E+02  0.00000000000E+00 0. -1.
         11    1    1    2    0    0 -0.17751080425E+01  0.20451421381E+01 -0.16194462218E+02  0.16419324635E+02  0.00000000000E+00 0.  1.
        -15    1    1    2    0    0  0.21193716190E+01  0.28711592305E+01 -0.17102593609E+02  0.17561085631E+02  0.17770000000E+01 0.  1.
         15    1    1    2    0    0  0.13003133576E+01 -0.51508192455E+01 -0.11289093313E+02  0.12602504139E+02  0.17770000000E+01 0. -1.
</event>
<event>
 6    1  0.3691007E-002  0.4788295E+02  0.7546771E-02  0.1307290E+00
        -11   -1    0    0    0    0  0.00000000000E+00  0.00000000000E+00  0.45600000000E+02  0.45600000000E+02  0.00000000000E+00 0.  1.
         11   -1    0    0    0    0 -0.00000000000E+00 -0.00000000000E+00 -0.45600000000E+02  0.45600000000E+02  0.00000000000E+00 0.  1.
        -11    1    1    2    0    0  0.13072176964E+01 -0.41921698602E+01  0.43093890556E+02  0.43317046408E+02  0.00000000000E+00 0.  1.
         11    1    1    2    0    0 -0.33225008020E+01  0.94097827235E+00 -0.39514499724E+02  0.39665099775E+02  0.00000000000E+00 0.  1.
        -15    1    1    2    0    0  0.11016707270E+00  0.92150848638E+00 -0.42132575323E+01  0.46658957027E+01  0.17770000000E+01 0.  1.
         15    1    1    2    0    0  0.19051160330E+01  0.23296831014E+01  0.63386670019E+00  0.35519581143E+01  0.17770000000E+01 0. -1.
</event>
<event>
 6    1  0.3691007E-002  0.4671390E+02  0.7546771E-02  0.1312738E+00
        -11   -1    0    0    0    0  0.00000000000E+00  0.00000000000E+00  0.45600000000E+02  0.45600000000E+02  0.00000000000E+00 0. -1.
         11   -1    0    0    0    0 -0.00000000000E+00 -0.00000000000E+00 -0.45600000000E+02  0.45600000000E+02  0.00000000000E+00 0.  1.
        -11    1    1    2    0    0  0.27134631873E+00 -0.17487382109E+01  0.13034541490E+02  0.13154124297E+02  0.00000000000E+00 0. -1.
         11    1    1    2    0    0 -0.15843237612E+01  0.26378932889E+01 -0.44379546113E+02  0.44486095311E+02  0.00000000000E+00 0.  1.
        -15    1    1    2    0    0 -0.32312518409E+01  0.30823144009E+01  0.75730899683E+01  0.89694521122E+01  0.17770000000E+01 0. -1.
         15    1    1    2    0    0  0.45442292834E+01 -0.39714694789E+01  0.23771914654E+02  0.24590328280E+02  0.17770000000E+01 0. -1.
</event>
<event>
 6    1  0.3691007E-002  0.4733044E+02  0.7546771E-02  0.1309842E+00
        -11   -1    0    0    0    0  0.00000000000E+00  0.00000000000E+00  0.45600000000E+02  0.45600000000E+02  0.00000000000E+00 0.  1.
         11   -1    0    0    0    0 -0.00000000000E+00 -0.00000000000E+00 -0.45600000000E+02  0.45600000000E+02  0.00000000000E+00 0. -1.
        -11    1    1    2    0    0  0.18857777642E+01  0.18869618713E+01  0.39985367687E+02  0.40074261215E+02  0.00000000000E+00 0.  1.
         11    1    1    2    0    0  0.12166142280E-01 -0.15032661816E+01 -0.43843793851E+02  0.43869559110E+02  0.00000000000E+00 0. -1.
        -15    1    1    2    0    0  0.59906284559E+00  0.64564054576E+00 -0.28178625318E+00  0.20032125448E+01  0.17770000000E+01 0.  1.
         15    1    1    2    0    0 -0.24970067521E+01 -0.10293362354E+01  0.41402124179E+01  0.52529671302E+01  0.17770000000E+01 0. -1.
</event>
<event>
 6    1  0.3691007E-002  0.4614626E+02  0.7546771E-02  0.1315450E+00
        -11   -1    0    0    0    0  0.00000000000E+00  0.00000000000E+00  0.45600000000E+02  0.45600000000E+02  0.00000000000E+00 0. -1.
         11   -1    0    0    0    0 -0.00000000000E+00 -0.00000000000E+00 -0.45600000000E+02  0.45600000000E+02  0.00000000000E+00 0. -1.
        -11    1    1    2    0    0  0.48906996162E-01 -0.23441805034E+01  0.44992683809E+02  0.45053736476E+02  0.00000000000E+00 0. -1.
         11    1    1    2    0    0 -0.88143872293E+00  0.14920812642E+00 -0.33557149377E+02  0.33569055268E+02  0.00000000000E+00 0. -1.
        -15    1    1    2    0    0 -0.10358834111E+01  0.64057640177E+00 -0.58118496200E+01  0.61982834377E+01  0.17770000000E+01 0. -1.
         15    1    1    2    0    0  0.18684151379E+01  0.15543959752E+01 -0.56236848118E+01  0.63789248183E+01  0.17770000000E+01 0.  1.
</event>
<event>
 6    1  0.3691007E-002  0.4712871E+02  0.7546771E-02  0.1310784E+00
        -11   -1    0    0    0    0  0.00000000000E+00  0.00000000000E+00  0.45600000000E+02  0.45600000000E+02  0.00000000000E+00 0. -1.
         11   -1    0    0    0    0 -0.00000000000E+00 -0.00000000000E+00 -0.45600000000E+02  0.45600000000E+02  0.00000000000E+00 0.  1.
        -11    1    1    2    0    0 -0.16623754521E+01  0.13112570558E+01  0.41480813337E+02  0.41534813859E+02  0.00000000000E+00 0. -1.
         11    1    1    2    0    0  0.14654960199E+00  0.10752210865E+01 -0.44057932820E+02  0.44071294757E+02  0.00000000000E+00 0.  1.
        -15    1    1    2    0    0  0.15404116927E+01 -0.73680015180E+00  0.81240577898E+00  0.25948939856E+01  0.17770000000E+01 0. -1.
         15    1    1    2    0    0 -0.24585842557E-01 -0.16496779905E+01  0.17647137039E+01  0.29989973979E+01  0.17770000000E+01 0.  1.
</event>
<event>
 6    1  0.3691007E-002  0.4898790E+02  0.7546771E-02  0.1302302E+00
        -11   -1    0    0    0    0  0.00000000000E+00  0.00000000000E+00  0.45600000000E+02  0.45600000000E+02  0.00000000000E+00 0. -1.
         11   -1    0    0    0    0 -0.00000000000E+00 -0.00000000000E+00 -0.45600000000E+02  0.45600000000E+02  0.00000000000E+00 0. -1.
        -11    1    1    2    0    0  0.47731038571E+00 -0.59197558798E+00  0.42205252531E+02  0.42212102547E+02  0.00000000000E+00 0. -1.
         11    1    1    2    0    0  0.19745515899E+01  0.15422086504E+01 -0.26944580623E+02  0.27060814593E+02  0.00000000000E+00 0. -1.
        -15    1    1    2    0    0 -0.63696615678E+01 -0.23011011894E+01 -0.15899528411E+02  0.17372978670E+02  0.17770000000E+01 0. -1.
         15    1    1    2    0    0  0.39177995922E+01  0.13508681270E+01  0.63885650278E+00  0.45541041899E+01  0.17770000000E+01 0. -1.
</event>
<event>
 6    1  0.3691007E-002  0.3391866E+02  0.7546771E-02  0.1387740E+00
        -11   -1    0    0    0    0  0.00000000000E+00  0.00000000000E+00  0.45600000000E+02  0.45600000000E+02  0.00000000000E+00 0. -1.
         11   -1    0    0    0    0 -0.00000000000E+00 -0.00000000000E+00 -0.45600000000E+02  0.45600000000E+02  0.00000000000E+00 0.  1.
        -11    1    1    2    0    0  0.66408824216E+01  0.13096512606E+01 -0.13997424774E+01  0.69120029489E+01  0.00000000000E+00 0. -1.
         11    1    1    2    0    0  0.27031973986E+01  0.62953379610E+01 -0.12263465750E+02  0.14047460568E+02  0.00000000000E+00 0.  1.
        -15    1    1    2    0    0  0.61866545643E+01 -0.15264831833E+02 -0.23760834558E+02  0.28965924350E+02  0.17770000000E+01 0.  1.
         15    1    1    2    0    0 -0.15530734385E+02  0.76598426117E+01  0.37424042785E+02  0.41274612133E+02  0.17770000000E+01 0. -1.
</event>
<event>
 6    1  0.3691007E-002  0.4713613E+02  0.7546771E-02  0.1310749E+00
        -11   -1    0    0    0    0  0.00000000000E+00  0.00000000000E+00  0.45600000000E+02  0.45600000000E+02  0.00000000000E+00 0.  1.
         11   -1    0    0    0    0 -0.00000000000E+00 -0.00000000000E+00 -0.45600000000E+02  0.45600000000E+02  0.00000000000E+00 0. -1.
        -11    1    1    2    0    0 -0.20460868958E+01  0.39510763848E+01  0.43838644649E+02  0.44063865477E+02  0.00000000000E+00 0.  1.
         11    1    1    2    0    0  0.16131192741E+01 -0.17965905045E+00 -0.33749790357E+02  0.33788796668E+02  0.00000000000E+00 0. -1.
        -15    1    1    2    0    0 -0.18359033022E+01  0.61883903057E+00 -0.92795480396E+00  0.27878902057E+01  0.17770000000E+01 0.  1.
         15    1    1    2    0    0  0.22688709239E+01 -0.43902563649E+01 -0.91608994881E+01  0.10559447649E+02  0.17770000000E+01 0. -1.
</event>
<event>
 6    1  0.3691007E-002  0.5206350E+02  0.7546771E-02  0.1289180E+00
        -11   -1    0    0    0    0  0.00000000000E+00  0.00000000000E+00  0.45600000000E+02  0.45600000000E+02  0.00000000000E+00 0. -1.
         11   -1    0    0    0    0 -0.00000000000E+00 -0.00000000000E+00 -0.45600000000E+02  0.45600000000E+02  0.00000000000E+00 0. -1.
        -11    1    1    2    0    0  0.31666524116E+01  0.11175996410E+00  0.39008020739E+02  0.39136502907E+02  0.00000000000E+00 0. -1.
         11    1    1    2    0    0  0.15635970941E+01  0.35723800143E+01 -0.22748757428E+02  0.23080569737E+02  0.00000000000E+00 0. -1.
        -15    1    1    2    0    0 -0.17220746883E+01 -0.31061695816E+01  0.55852555600E+01  0.68532210946E+01  0.17770000000E+01 0.  1.
         15    1    1    2    0    0 -0.30081748175E+01 -0.57797039681E+00 -0.21844518871E+02  0.22129706262E+02  0.17770000000E+01 0. -1.
</event>
<event>
 6    1  0.3691007E-002  0.4920976E+02  0.7546771E-02  0.1301319E+00
        -11   -1    0    0    0    0  0.00000000000E+00  0.00000000000E+00  0.45600000000E+02  0.45600000000E+02  0.00000000000E+00 0. -1.
         11   -1    0    0    0    0 -0.00000000000E+00 -0.00000000000E+00 -0.45600000000E+02  0.45600000000E+02  0.00000000000E+00 0. -1.
        -11    1    1    2    0    0 -0.23457978815E+00  0.16136074974E+01  0.41958565836E+02  0.41990237006E+02  0.00000000000E+00 0. -1.
         11    1    1    2    0    0  0.10950692371E+00 -0.64245868880E+00 -0.41298517130E+02  0.41303659185E+02  0.00000000000E+00 0. -1.
        -15    1    1    2    0    0 -0.17285715006E+01 -0.20510695183E+01  0.22123702724E+01  0.39047607895E+01  0.17770000000E+01 0.  1.
         15    1    1    2    0    0  0.18536443650E+01  0.10799207097E+01 -0.28724189780E+01  0.40013430191E+01  0.17770000000E+01 0.  1.
</event>
<event>
 6    1  0.3691007E-002  0.4717744E+02  0.7546771E-02  0.1310556E+00
        -11   -1    0    0    0    0  0.00000000000E+00  0.00000000000E+00  0.45600000000E+02  0.45600000000E+02  0.00000000000E+00 0.  1.
         11   -1    0    0    0    0 -0.00000000000E+00 -0.00000000000E+00 -0.45600000000E+02  0.45600000000E+02  0.00000000000E+00 0. -1.
        -11    1    1    2    0    0 -0.12882332081E+01  0.69330028286E+00  0.33055799430E+02  0.33088156280E+02  0.00000000000E+00 0.  1.
         11    1    1    2    0    0  0.40532234738E+00  0.16258411256E+01 -0.43990658452E+02  0.44022558725E+02  0.00000000000E+00 0. -1.
        -15    1    1    2    0    0  0.30518113997E+01  0.48485843194E+00  0.89935374298E+01  0.96741968669E+01  0.17770000000E+01 0.  1.
         15    1    1    2    0    0 -0.21689005391E+01 -0.28039998404E+01  0.19413215926E+01  0.44150881281E+01  0.17770000000E+01 0.  1.
</event>
<event>
 6    1  0.3691007E-002  0.3493190E+02  0.7546771E-02  0.1380477E+00
        -11   -1    0    0    0    0  0.00000000000E+00  0.00000000000E+00  0.45600000000E+02  0.45600000000E+02  0.00000000000E+00 0. -1.
         11   -1    0    0    0    0 -0.00000000000E+00 -0.00000000000E+00 -0.45600000000E+02  0.45600000000E+02  0.00000000000E+00 0.  1.
        -11    1    1    2    0    0  0.11722575154E+01  0.34315092605E+01  0.33419275656E+02  0.33615434384E+02  0.00000000000E+00 0. -1.
         11    1    1    2    0    0  0.34940427476E+01  0.60567234408E-01 -0.36386396203E+02  0.36553821028E+02  0.00000000000E+00 0.  1.
        -15    1    1    2    0    0 -0.71885297545E+00 -0.28758356047E+01 -0.82752402467E+01  0.89679713518E+01  0.17770000000E+01 0.  1.
         15    1    1    2    0    0 -0.39474472876E+01 -0.61624089020E+00  0.11242360794E+02  0.12062773236E+02  0.17770000000E+01 0. -1.
</event>
<event>
 6    1  0.3691007E-002  0.4311105E+02  0.7546771E-02  0.1330754E+00
        -11   -1    0    0    0    0  0.00000000000E+00  0.00000000000E+00  0.45600000000E+02  0.45600000000E+02  0.00000000000E+00 0. -1.
         11   -1    0    0    0    0 -0.00000000000E+00 -0.00000000000E+00 -0.45600000000E+02  0.45600000000E+02  0.00000000000E+00 0. -1.
        -11    1    1    2    0    0  0.69097013284E+00 -0.24621315369E+00  0.43380731165E+02  0.43386932331E+02  0.00000000000E+00 0. -1.
         11    1    1    2    0    0 -0.23456346921E+00  0.16249751000E+01 -0.42817777712E+02  0.42849243310E+02  0.00000000000E+00 0. -1.
        -15    1    1    2    0    0 -0.14634160437E+01 -0.59916125839E+00  0.64696207426E+00  0.24651307584E+01  0.17770000000E+01 0.  1.
         15    1    1    2    0    0  0.10070093801E+01 -0.77960068792E+00 -0.12099155277E+01  0.24986936004E+01  0.17770000000E+01 0. -1.
</event>
<event>
 6    1  0.3691007E-002  0.5377568E+02  0.7546771E-02  0.1282316E+00
        -11   -1    0    0    0    0  0.00000000000E+00  0.00000000000E+00  0.45600000000E+02  0.45600000000E+02  0.00000000000E+00 0. -1.
         11   -1    0    0    0    0 -0.00000000000E+00 -0.00000000000E+00 -0.45600000000E+02  0.45600000000E+02  0.00000000000E+00 0. -1.
        -11    1    1    2    0    0 -0.75372044005E+00  0.47394328851E+00  0.29751136713E+02  0.29764456193E+02  0.00000000000E+00 0. -1.
         11    1    1    2    0    0 -0.48605120490E+00  0.32004529511E+00 -0.37419799732E+02  0.37424324800E+02  0.00000000000E+00 0. -1.
        -15    1    1    2    0    0  0.14358166388E+01  0.19493172623E+01 -0.77171060128E+01  0.82808732283E+01  0.17770000000E+01 0.  1.
         15    1    1    2    0    0 -0.19604499389E+00 -0.27433058459E+01  0.15385769032E+02  0.15730345778E+02  0.17770000000E+01 0. -1.
</event>
<event>
 6    1  0.3691007E-002  0.4342107E+02  0.7546771E-02  0.1329125E+00
        -11   -1    0    0    0    0  0.00000000000E+00  0.00000000000E+00  0.45600000000E+02  0.45600000000E+02  0.00000000000E+00 0. -1.
         11   -1    0    0    0    0 -0.00000000000E+00 -0.00000000000E+00 -0.45600000000E+02  0.45600000000E+02  0.00000000000E+00 0. -1.
        -11    1    1    2    0    0  0.13962938491E+01  0.45102102584E+00  0.12092244381E+01  0.19013890240E+01  0.00000000000E+00 0. -1.
         11    1    1    2    0    0  0.14327833754E+01 -0.41861198750E+00 -0.43741900382E+02  0.43767361735E+02  0.00000000000E+00 0. -1.
        -15    1    1    2    0    0 -0.16040680251E+01  0.11241822766E+01  0.42963606546E+02  0.43044930438E+02  0.17770000000E+01 0. -1.
         15    1    1    2    0    0 -0.12250091995E+01 -0.11565913149E+01 -0.43093060194E+00  0.24863188034E+01  0.17770000000E+01 0. -1.
</event>
<event>
 6    1  0.3691007E-002  0.4626419E+02  0.7546771E-02  0.1314883E+00
        -11   -1    0    0    0    0  0.00000000000E+00  0.00000000000E+00  0.45600000000E+02  0.45600000000E+02  0.00000000000E+00 0.  1.
         11   -1    0    0    0    0 -0.00000000000E+00 -0.00000000000E+00 -0.45600000000E+02  0.45600000000E+02  0.00000000000E+00 0. -1.
        -11    1    1    2    0    0  0.65749064048E+00 -0.32552736222E+00  0.44929818341E+02  0.44935807972E+02  0.00000000000E+00 0.  1.
         11    1    1    2    0    0  0.57620549517E+00  0.84236673835E+00 -0.29005979788E+02  0.29023929058E+02  0.00000000000E+00 0. -1.
        -15    1    1    2    0    0 -0.22187599302E+01 -0.34759937367E+00 -0.14433390253E+02  0.14714761437E+02  0.17770000000E+01 0. -1.
         15    1    1    2    0    0  0.98506379452E+00 -0.16924000247E+00 -0.14904482993E+01  0.25255015325E+01  0.17770000000E+01 0. -1.
</event>
<event>
 6    1  0.3691007E-002  0.4660450E+02  0.7546771E-02  0.1313257E+00
        -11   -1    0    0    0    0  0.00000000000E+00  0.00000000000E+00  0.45600000000E+02  0.45600000000E+02  0.00000000000E+00 0.  1.
         11   -1    0    0    0    0 -0.00000000000E+00 -0.00000000000E+00 -0.45600000000E+02  0.45600000000E+02  0.00000000000E+00 0. -1.
        -11    1    1    2    0    0  0.62410284036E+00 -0.53705261876E+00  0.24805429998E+02  0.24819091185E+02  0.00000000000E+00 0.  1.
         11    1    1    2    0    0  0.15727806716E+01 -0.12450013039E+01 -0.44550366033E+02  0.44595501802E+02  0.00000000000E+00 0. -1.
        -15    1    1    2    0    0 -0.87998804058E+00  0.41670507458E-01  0.14963787059E+00  0.19890288774E+01  0.17770000000E+01 0. -1.
         15    1    1    2    0    0 -0.13168954714E+01  0.17403834152E+01  0.19595298165E+02  0.19796378136E+02  0.17770000000E+01 0.  1.
</event>
<event>
 6    1  0.3691007E-002  0.4593057E+02  0.7546771E-02  0.1316492E+00
        -11   -1    0    0    0    0  0.00000000000E+00  0.00000000000E+00  0.45600000000E+02  0.45600000000E+02  0.00000000000E+00 0. -1.
         11   -1    0    0    0    0 -0.00000000000E+00 -0.00000000000E+00 -0.45600000000E+02  0.45600000000E+02  0.00000000000E+00 0.  1.
        -11    1    1    2    0    0  0.17221463529E+01  0.17401537622E+01  0.45203178600E+02  0.45269429848E+02  0.00000000000E+00 0. -1.
         11    1    1    2    0    0 -0.64067367566E-01 -0.93931616213E+00 -0.97619508326E+01  0.98072475006E+01  0.00000000000E+00 0.  1.
        -15    1    1    2    0    0 -0.34958158914E+01 -0.16945044032E+01 -0.20916225439E+02  0.21348027767E+02  0.17770000000E+01 0.  1.
         15    1    1    2    0    0  0.18377369061E+01  0.89366680314E+00 -0.14525002328E+02  0.14775294885E+02  0.17770000000E+01 0.  1.
</event>
<event>
 6    1  0.3691007E-002  0.4817730E+02  0.7546771E-02  0.1305946E+00
        -11   -1    0    0    0    0  0.00000000000E+00  0.00000000000E+00  0.45600000000E+02  0.45600000000E+02  0.00000000000E+00 0.  1.
         11   -1    0    0    0    0 -0.00000000000E+00 -0.00000000000E+00 -0.45600000000E+02  0.45600000000E+02  0.00000000000E+00 0. -1.
        -11    1    1    2    0    0  0.81253715978E+00 -0.53397810085E+00  0.41151978837E+02  0.41163463308E+02  0.00000000000E+00 0.  1.
         11    1    1    2    0    0 -0.16623502094E+01  0.24683139168E+01 -0.42919651363E+02  0.43022696974E+02  0.00000000000E+00 0. -1.
        -15    1    1    2    0    0 -0.80000999423E+00 -0.24809106748E+01  0.28974975220E+01  0.42834746010E+01  0.17770000000E+01 0. -1.
         15    1    1    2    0    0  0.16498230438E+01  0.54657485883E+00 -0.11298249969E+01  0.27303651177E+01  0.17770000000E+01 0.  1.
</event>
<event>
 6    1  0.3691007E-002  0.2952317E+02  0.7546771E-02  0.1423070E+00
        -11   -1    0    0    0    0  0.00000000000E+00  0.00000000000E+00  0.45600000000E+02  0.45600000000E+02  0.00000000000E+00 0.  1.
         11   -1    0    0    0    0 -0.00000000000E+00 -0.00000000000E+00 -0.45600000000E+02  0.45600000000E+02  0.00000000000E+00 0. -1.
        -11    1    1    2    0    0  0.20607289775E+01  0.37715233601E+01  0.16373419196E+02  0.16928078702E+02  0.00000000000E+00 0.  1.
         11    1    1    2    0    0 -0.72169062988E+01  0.54102378033E+01 -0.31594370068E+02  0.32856637528E+02  0.00000000000E+00 0. -1.
        -15    1    1    2    0    0 -0.30594943548E+01 -0.14517912249E+02  0.23913476040E+02  0.28198268513E+02  0.17770000000E+01 0.  1.
         15    1    1    2    0    0  0.82156716761E+01  0.53361510861E+01 -0.86925251684E+01  0.13217015257E+02  0.17770000000E+01 0. -1.
</event>
<event>
 6    1  0.3691007E-002  0.4758404E+02  0.7546771E-02  0.1308666E+00
        -11   -1    0    0    0    0  0.00000000000E+00  0.00000000000E+00  0.45600000000E+02  0.45600000000E+02  0.00000000000E+00 0. -1.
         11   -1    0    0    0    0 -0.00000000000E+00 -0.00000000000E+00 -0.45600000000E+02  0.45600000000E+02  0.00000000000E+00 0.  1.
        -11    1    1    2    0    0 -0.10064751893E+01  0.11609314015E+01  0.37046103070E+02  0.37077951759E+02  0.00000000000E+00 0. -1.
         11    1    1    2    0    0 -0.27635149269E+01  0.48085074897E+00 -0.43525666600E+02  0.43615959065E+02  0.00000000000E+00 0.  1.
        -15    1    1    2    0    0 -0.11081778193E+01 -0.51028405752E+00  0.42066829719E+01  0.47267704117E+01  0.17770000000E+01 0.  1.
         15    1    1    2    0    0  0.48781679355E+01 -0.11314980930E+01  0.22728805583E+01  0.57793187638E+01  0.17770000000E+01 0.  1.
</event>
<event>
 6    1  0.3691007E-002  0.4779280E+02  0.7546771E-02  0.1307703E+00
        -11   -1    0    0    0    0  0.00000000000E+00  0.00000000000E+00  0.45600000000E+02  0.45600000000E+02  0.00000000000E+00 0.  1.
         11   -1    0    0    0    0 -0.00000000000E+00 -0.00000000000E+00 -0.45600000000E+02  0.45600000000E+02  0.00000000000E+00 0. -1.
        -11    1    1    2    0    0 -0.89972349165E+01  0.33749314641E+01  0.42330181961E+02  0.43407196447E+02  0.00000000000E+00 0.  1.
         11    1    1    2    0    0 -0.69690447909E+00  0.24887065043E+00 -0.10427361107E+02  0.10453586567E+02  0.00000000000E+00 0. -1.
        -15    1    1    2    0    0  0.67420176722E+01  0.37065287053E+01 -0.52486508739E+01  0.94815200434E+01  0.17770000000E+01 0.  1.
         15    1    1    2    0    0  0.29521217233E+01 -0.73303308199E+01 -0.26654169980E+02  0.27857696942E+02  0.17770000000E+01 0. -1.
</event>
<event>
 6    1  0.3691007E-002  0.4693770E+02  0.7546771E-02  0.1311681E+00
        -11   -1    0    0    0    0  0.00000000000E+00  0.00000000000E+00  0.45600000000E+02  0.45600000000E+02  0.00000000000E+00 0. -1.
         11   -1    0    0    0    0 -0.00000000000E+00 -0.00000000000E+00 -0.45600000000E+02  0.45600000000E+02  0.00000000000E+00 0.  1.
        -11    1    1    2    0    0 -0.99034667601E+00  0.75934251686E+00  0.28143211380E+02  0.28170866767E+02  0.00000000000E+00 0. -1.
         11    1    1    2    0    0  0.30023217589E+00 -0.16812253072E+01 -0.44229344966E+02  0.44262304663E+02  0.00000000000E+00 0.  1.
        -15    1    1    2    0    0  0.14220891737E+01  0.28296771329E+01  0.15598071756E+02  0.16015210950E+02  0.17770000000E+01 0. -1.
         15    1    1    2    0    0 -0.73197467358E+00 -0.19077943426E+01  0.48806183058E+00  0.27516176200E+01  0.17770000000E+01 0.  1.
</event>
<event>
 6    1  0.3691007E-002  0.3976557E+02  0.7546771E-02  0.1349405E+00
        -11   -1    0    0    0    0  0.00000000000E+00  0.00000000000E+00  0.45600000000E+02  0.45600000000E+02  0.00000000000E+00 0. -1.
         11   -1    0    0    0    0 -0.00000000000E+00 -0.00000000000E+00 -0.45600000000E+02  0.45600000000E+02  0.00000000000E+00 0.  1.
        -11    1    1    2    0    0 -0.80126846432E+01  0.34767559707E+01  0.39833053010E+02  0.40779444079E+02  0.00000000000E+00 0. -1.
         11    1    1    2    0    0  0.46416362555E+00 -0.11900332982E+01 -0.39124133767E+02  0.39144980140E+02  0.00000000000E+00 0.  1.
        -15    1    1    2    0    0  0.49345276861E+01 -0.92420482617E+00 -0.38850926736E+01  0.65920703977E+01  0.17770000000E+01 0.  1.
         15    1    1    2    0    0  0.26139933315E+01 -0.13625178464E+01  0.31761734302E+01  0.46835053835E+01  0.17770000000E+01 0. -1.
</event>
<event>
 6    1  0.3691007E-002  0.4739859E+02  0.7546771E-02  0.1309525E+00
        -11   -1    0    0    0    0  0.00000000000E+00  0.00000000000E+00  0.45600000000E+02  0.45600000000E+02  0.00000000000E+00 0. -1.
         11   -1    0    0    0    0 -0.00000000000E+00 -0.00000000000E+00 -0.45600000000E+02  0.45600000000E+02  0.00000000000E+00 0. -1.
        -11    1    1    2    0    0 -0.30520833831E+01 -0.10800932229E+01  0.37377140724E+02  0.37517095610E+02  0.00000000000E+00 0. -1.
         11    1    1    2    0    0  0.17998687157E+01 -0.72793381844E+00 -0.43758357411E+02  0.43801407036E+02  0.00000000000E+00 0. -1.
        -15    1    1    2    0    0  0.24131674976E+01  0.12043387892E+01  0.68965034547E+01  0.76153330978E+01  0.17770000000E+01 0. -1.
         15    1    1    2    0    0 -0.11609528302E+01  0.60368825209E+00 -0.51528676749E+00  0.22661642554E+01  0.17770000000E+01 0. -1.
</event>
<event>
 6    1  0.3691007E-002  0.4560040E+02  0.7546771E-02  0.1318100E+00
        -11   -1    0    0    0    0  0.00000000000E+00  0.00000000000E+00  0.45600000000E+02  0.45600000000E+02  0.00000000000E+00 0.  1.
         11   -1    0    0    0    0 -0.00000000000E+00 -0.00000000000E+00 -0.45600000000E+02  0.45600000000E+02  0.00000000000E+00 0. -1.
        -11    1    1    2    0    0 -0.59018229267E+00 -0.30270710236E+00  0.27017247277E+00  0.71619822217E+00  0.00000000000E+00 0.  1.
         11    1    1    2    0    0  0.77221463307E+00  0.67743310884E+00 -0.45009129950E+02  0.45020850835E+02  0.00000000000E+00 0. -1.
        -15    1    1    2    0    0  0.26735896869E+01  0.19884096732E+01  0.26418354708E+02  0.26686870355E+02  0.17770000000E+01 0.  1.
         15    1    1    2    0    0 -0.28556220273E+01 -0.23631356797E+01  0.18320602769E+02  0.18776080587E+02  0.17770000000E+01 0. -1.
</event>
<event>
 6    1  0.3691007E-002  0.3506991E+02  0.7546771E-02  0.1379510E+00
        -11   -1    0    0    0    0  0.00000000000E+00  0.00000000000E+00  0.45600000000E+02  0.45600000000E+02  0.00000000000E+00 0. -1.
         11   -1    0    0    0    0 -0.00000000000E+00 -0.00000000000E+00 -0.45600000000E+02  0.45600000000E+02  0.00000000000E+00 0.  1.
        -11    1    1    2    0    0  0.37150690309E+01 -0.43978136788E+01  0.27156088760E+02  0.27759604821E+02  0.00000000000E+00 0. -1.
         11    1    1    2    0    0  0.14507927980E+02 -0.22157323549E+01 -0.26066492765E+02  0.29914068416E+02  0.00000000000E+00 0.  1.
        -15    1    1    2    0    0 -0.94664583928E-01 -0.77643909982E+01 -0.57917681420E+01  0.98487073348E+01  0.17770000000E+01 0.  1.
         15    1    1    2    0    0 -0.18128332427E+02  0.14377937032E+02  0.47021721471E+01  0.23677619428E+02  0.17770000000E+01 0. -1.
</event>
<event>
 6    1  0.3691007E-002  0.4621012E+02  0.7546771E-02  0.1315142E+00
        -11   -1    0    0    0    0  0.00000000000E+00  0.00000000000E+00  0.45600000000E+02  0.45600000000E+02  0.00000000000E+00 0.  1.
         11   -1    0    0    0    0 -0.00000000000E+00 -0.00000000000E+00 -0.45600000000E+02  0.45600000000E+02  0.00000000000E+00 0. -1.
        -11    1    1    2    0    0 -0.10111117741E+00 -0.72226954913E+00  0.37183097604E+02  0.37190249317E+02  0.00000000000E+00 0.  1.
         11    1    1    2    0    0  0.66289575680E+00  0.40600019049E+00 -0.44983167669E+02  0.44989883757E+02  0.00000000000E+00 0. -1.
        -15    1    1    2    0    0 -0.11202609965E+01  0.29108724585E+00  0.19521949916E+01  0.28824487455E+01  0.17770000000E+01 0. -1.
         15    1    1    2    0    0  0.55847641716E+00  0.25182112785E-01  0.58478750734E+01  0.61374181804E+01  0.17770000000E+01 0.  1.
</event>
<event>
 6    1  0.3691007E-002  0.1702310E+02  0.7546771E-02  0.1583591E+00
        -11   -1    0    0    0    0  0.00000000000E+00  0.00000000000E+00  0.45600000000E+02  0.45600000000E+02  0.00000000000E+00 0.  1.
         11   -1    0    0    0    0 -0.00000000000E+00 -0.00000000000E+00 -0.45600000000E+02  0.45600000000E+02  0.00000000000E+00 0.  1.
        -11    1    1    2    0    0  0.12835257697E+02  0.60018106859E+01  0.24893966874E+02  0.28643937550E+02  0.00000000000E+00 0.  1.
         11    1    1    2    0    0 -0.12092934694E+02  0.70162111248E+01 -0.23605886471E+02  0.27435454509E+02  0.00000000000E+00 0.  1.
        -15    1    1    2    0    0 -0.15362948408E+02 -0.20028450773E+01  0.37745809581E+01  0.16044836010E+02  0.17770000000E+01 0. -1.
         15    1    1    2    0    0  0.14620625405E+02 -0.11015176733E+02 -0.50626613611E+01  0.19075771930E+02  0.17770000000E+01 0.  1.
</event>
<event>
 6    1  0.3691007E-002  0.4146546E+02  0.7546771E-02  0.1339674E+00
        -11   -1    0    0    0    0  0.00000000000E+00  0.00000000000E+00  0.45600000000E+02  0.45600000000E+02  0.00000000000E+00 0. -1.
         11   -1    0    0    0    0 -0.00000000000E+00 -0.00000000000E+00 -0.45600000000E+02  0.45600000000E+02  0.00000000000E+00 0.  1.
        -11    1    1    2    0    0 -0.10189251917E+01  0.13877829860E+01  0.40964722727E+02  0.41000886067E+02  0.00000000000E+00 0. -1.
         11    1    1    2    0    0 -0.67540292723E+00  0.10038978004E+01 -0.41970474791E+02  0.41987911762E+02  0.00000000000E+00 0.  1.
        -15    1    1    2    0    0 -0.43590056607E+00 -0.15472698793E+01  0.35971920095E+01  0.43222184970E+01  0.17770000000E+01 0.  1.
         15    1    1    2    0    0  0.21302286850E+01 -0.84441090707E+00 -0.25914399450E+01  0.38889836743E+01  0.17770000000E+01 0. -1.
</event>
<event>
 6    1  0.3691007E-002  0.4736962E+02  0.7546771E-02  0.1309660E+00
        -11   -1    0    0    0    0  0.00000000000E+00  0.00000000000E+00  0.45600000000E+02  0.45600000000E+02  0.00000000000E+00 0. -1.
         11   -1    0    0    0    0 -0.00000000000E+00 -0.00000000000E+00 -0.45600000000E+02  0.45600000000E+02  0.00000000000E+00 0. -1.
        -11    1    1    2    0    0 -0.11990220222E+01 -0.53369457148E-01  0.43813939607E+02  0.43830375380E+02  0.00000000000E+00 0. -1.
         11    1    1    2    0    0  0.11280104866E-01 -0.54145492462E+00 -0.31352635385E+02  0.31357312485E+02  0.00000000000E+00 0. -1.
        -15    1    1    2    0    0  0.21940394588E+01  0.21744458502E+01 -0.29586167748E+00  0.35759316317E+01  0.17770000000E+01 0. -1.
         15    1    1    2    0    0 -0.10062975414E+01 -0.15796214684E+01 -0.12165442544E+02  0.12436380503E+02  0.17770000000E+01 0.  1.
</event>
<event>
 6    1  0.3691007E-002  0.4695383E+02  0.7546771E-02  0.1311605E+00
        -11   -1    0    0    0    0  0.00000000000E+00  0.00000000000E+00  0.45600000000E+02  0.45600000000E+02  0.00000000000E+00 0. -1.
         11   -1    0    0    0    0 -0.00000000000E+00 -0.00000000000E+00 -0.45600000000E+02  0.45600000000E+02  0.00000000000E+00 0.  1.
        -11    1    1    2    0    0 -0.55725563878E+00  0.43766948730E+00  0.33315103267E+02  0.33322637862E+02  0.00000000000E+00 0. -1.
         11    1    1    2    0    0  0.15907367891E+01 -0.18059861666E+01 -0.44180671071E+02  0.44246171878E+02  0.00000000000E+00 0.  1.
        -15    1    1    2    0    0 -0.38465758024E+01  0.57327141772E+00  0.83625538328E+01  0.93922745450E+01  0.17770000000E+01 0.  1.
         15    1    1    2    0    0  0.28130946521E+01  0.79504526154E+00  0.25030139717E+01  0.42389157142E+01  0.17770000000E+01 0. -1.
</event>
<event>
 6    1  0.3691007E-002  0.3828553E+02  0.7546771E-02  0.1358349E+00
        -11   -1    0    0    0    0  0.00000000000E+00  0.00000000000E+00  0.45600000000E+02  0.45600000000E+02  0.00000000000E+00 0. -1.
         11   -1    0    0    0    0 -0.00000000000E+00 -0.00000000000E+00 -0.45600000000E+02  0.45600000000E+02  0.00000000000E+00 0. -1.
        -11    1    1    2    0    0  0.15851331715E+00 -0.13440717917E+01  0.40705365177E+02  0.40727857906E+02  0.00000000000E+00 0. -1.
         11    1    1    2    0    0  0.39506628465E+01  0.69015162651E+01 -0.35452799181E+02  0.36333725841E+02  0.00000000000E+00 0. -1.
        -15    1    1    2    0    0 -0.58847801112E+01 -0.73318694117E+01 -0.55288514605E+01  0.11050469379E+02  0.17770000000E+01 0. -1.
         15    1    1    2    0    0  0.17756039476E+01  0.17744249383E+01  0.27628546505E+00  0.30879468743E+01  0.17770000000E+01 0.  1.
</event>
<event>
 6    1  0.3691007E-002  0.4832796E+02  0.7546771E-02  0.1305263E+00
        -11   -1    0    0    0    0  0.00000000000E+00  0.00000000000E+00  0.45600000000E+02  0.45600000000E+02  0.00000000000E+00 0.  1.
         11   -1    0    0    0    0 -0.00000000000E+00 -0.00000000000E+00 -0.45600000000E+02  0.45600000000E+02  0.00000000000E+00 0.  1.
        -11    1    1    2    0    0 -0.27442768805E+01 -0.12667825593E+01  0.39634690606E+02  0.39749773497E+02  0.00000000000E+00 0.  1.
         11    1    1    2    0    0 -0.79263349061E+00 -0.10064527574E+01 -0.42852890056E+02  0.42872035188E+02  0.00000000000E+00 0.  1.
        -15    1    1    2    0    0  0.25301485869E+01  0.11175066448E+01  0.47493117216E+01  0.57761720717E+01  0.17770000000E+01 0.  1.
         15    1    1    2    0    0  0.10067617842E+01  0.11557286719E+01 -0.15311122712E+01  0.28020192434E+01  0.17770000000E+01 0.  1.
</event>
<event>
 6    1  0.3691007E-002  0.4817002E+02  0.7546771E-02  0.1305979E+00
        -11   -1    0    0    0    0  0.00000000000E+00  0.00000000000E+00  0.45600000000E+02  0.45600000000E+02  0.00000000000E+00 0.  1.
         11   -1    0    0    0    0 -0.00000000000E+00 -0.00000000000E+00 -0.45600000000E+02  0.45600000000E+02  0.00000000000E+00 0.  1.
        -11    1    1    2    0    0 -0.24793983909E+00  0.15830588166E+01  0.38032477821E+02  0.38066217550E+02  0.00000000000E+00 0.  1.
         11    1    1    2    0    0  0.10644414131E+01 -0.43342426138E+00 -0.43014632269E+02  0.43029983516E+02  0.00000000000E+00 0.  1.
        -15    1    1    2    0    0 -0.11198615932E+01  0.47687478257E+00  0.67597608910E+01  0.70946173857E+01  0.17770000000E+01 0. -1.
         15    1    1    2    0    0  0.30336001920E+00 -0.16265093378E+01 -0.17776064429E+01  0.30091815487E+01  0.17770000000E+01 0.  1.
</event>
<event>
 6    1  0.3691007E-002  0.4854961E+02  0.7546771E-02  0.1304262E+00
        -11   -1    0    0    0    0  0.00000000000E+00  0.00000000000E+00  0.45600000000E+02  0.45600000000E+02  0.00000000000E+00 0. -1.
         11   -1    0    0    0    0 -0.00000000000E+00 -0.00000000000E+00 -0.45600000000E+02  0.45600000000E+02  0.00000000000E+00 0. -1.
        -11    1    1    2    0    0 -0.13404067146E+01  0.80410417197E+00  0.38671580376E+02  0.38703157526E+02  0.00000000000E+00 0. -1.
         11    1    1    2    0    0  0.71873917212E+00 -0.38256181438E+00 -0.42642619597E+02  0.42650392093E+02  0.00000000000E+00 0. -1.
        -15    1    1    2    0    0 -0.39681632681E+00  0.26898910402E+01 -0.12091822995E+01  0.34659526596E+01  0.17770000000E+01 0. -1.
         15    1    1    2    0    0  0.10184838692E+01 -0.31114333977E+01  0.51802215204E+01  0.63804977221E+01  0.17770000000E+01 0. -1.
</event>
<event>
 6    1  0.3691007E-002  0.4669771E+02  0.7546771E-02  0.1312815E+00
        -11   -1    0    0    0    0  0.00000000000E+00  0.00000000000E+00  0.45600000000E+02  0.45600000000E+02  0.00000000000E+00 0.  1.
         11   -1    0    0    0    0 -0.00000000000E+00 -0.00000000000E+00 -0.45600000000E+02  0.45600000000E+02  0.00000000000E+00 0.  1.
        -11    1    1    2    0    0  0.28106851100E+01 -0.37248280472E+00  0.44411885107E+02  0.44502294694E+02  0.00000000000E+00 0.  1.
         11    1    1    2    0    0  0.48629028317E+00 -0.11262279338E+01 -0.26111122381E+02  0.26139923099E+02  0.00000000000E+00 0.  1.
        -15    1    1    2    0    0 -0.41175549740E+01 -0.22977345245E+01 -0.87899426332E+01  0.10131863768E+02  0.17770000000E+01 0.  1.
         15    1    1    2    0    0  0.82057958080E+00  0.37964452630E+01 -0.95108200925E+01  0.10425918440E+02  0.17770000000E+01 0.  1.
</event>
<event>
 6    1  0.3691007E-002  0.4647957E+02  0.7546771E-02  0.1313852E+00
        -11   -1    0    0    0    0  0.00000000000E+00  0.00000000000E+00  0.45600000000E+02  0.45600000000E+02  0.00000000000E+00 0.  1.
         11   -1    0    0    0    0 -0.00000000000E+00 -0.00000000000E+00 -0.45600000000E+02  0.45600000000E+02  0.00000000000E+00 0. -1.
        -11    1    1    2    0    0 -0.24548199149E+01  0.28933891807E+01  0.44559162229E+02  0.44720429116E+02  0.00000000000E+00 0.  1.
         11    1    1    2    0    0 -0.15073402802E+01  0.32924276976E+00 -0.33381059725E+02  0.33416696783E+02  0.00000000000E+00 0. -1.
        -15    1    1    2    0    0  0.34698382863E+00 -0.15629738960E+01 -0.36157321205E+01  0.43352661907E+01  0.17770000000E+01 0.  1.
         15    1    1    2    0    0  0.36151763664E+01 -0.16596580545E+01 -0.75623703830E+01  0.87276079098E+01  0.17770000000E+01 0. -1.
</event>
<event>
 6    1  0.3691007E-002  0.4726055E+02  0.7546771E-02  0.1310168E+00
        -11   -1    0    0    0    0  0.00000000000E+00  0.00000000000E+00  0.45600000000E+02  0.45600000000E+02  0.00000000000E+00 0.  1.
         11   -1    0    0    0    0 -0.00000000000E+00 -0.00000000000E+00 -0.45600000000E+02  0.45600000000E+02  0.00000000000E+00 0. -1.
        -11    1    1    2    0    0 -0.50614589132E+01  0.29877958600E+01  0.43544579323E+02  0.43939454695E+02  0.00000000000E+00 0.  1.
         11    1    1    2    0    0  0.21956492741E+00  0.49783798779E+00 -0.19931823394E+02  0.19939248612E+02  0.00000000000E+00 0. -1.
        -15    1    1    2    0    0  0.74771830670E+01 -0.57484679174E+01 -0.14276755497E+02  0.17202808682E+02  0.17770000000E+01 0.  1.
         15    1    1    2    0    0 -0.26352890812E+01  0.22628340696E+01 -0.93360004321E+01  0.10118488011E+02  0.17770000000E+01 0. -1.
</event>
<event>
 6    1  0.3691007E-002  0.4716978E+02  0.7546771E-02  0.1310592E+00
        -11   -1    0    0    0    0  0.00000000000E+00  0.00000000000E+00  0.45600000000E+02  0.45600000000E+02  0.00000000000E+00 0.  1.
         11   -1    0    0    0    0 -0.00000000000E+00 -0.00000000000E+00 -0.45600000000E+02  0.45600000000E+02  0.00000000000E+00 0.  1.
        -11    1    1    2    0    0 -0.22140692790E+00  0.45898401118E+00  0.36598661063E+02  0.36602208663E+02  0.00000000000E+00 0.  1.
         11    1    1    2    0    0 -0.14657854331E+01  0.39318293216E+01 -0.43829817163E+02  0.44030224633E+02  0.00000000000E+00 0.  1.
        -15    1    1    2    0    0  0.66367941357E+00 -0.22055965401E+01  0.69780391041E+01  0.75601511360E+01  0.17770000000E+01 0. -1.
         15    1    1    2    0    0  0.10235129474E+01 -0.21852167927E+01  0.25311699513E+00  0.30074155679E+01  0.17770000000E+01 0. -1.
</event>
<event>
 6    1  0.3691007E-002  0.4644138E+02  0.7546771E-02  0.1314034E+00
        -11   -1    0    0    0    0  0.00000000000E+00  0.00000000000E+00  0.45600000000E+02  0.45600000000E+02  0.00000000000E+00 0.  1.
         11   -1    0    0    0    0 -0.00000000000E+00 -0.00000000000E+00 -0.45600000000E+02  0.45600000000E+02  0.00000000000E+00 0. -1.
        -11    1    1    2    0    0 -0.15584538119E+01  0.10225126026E+01  0.44719795494E+02  0.44758623966E+02  0.00000000000E+00 0.  1.
         11    1    1    2    0    0 -0.30597312823E+01  0.92414671383E+00 -0.27315274365E+02  0.27501640247E+02  0.00000000000E+00 0. -1.
        -15    1    1    2    0    0  0.45718549996E+01 -0.65104851076E+00 -0.14323525112E+02  0.15154102511E+02  0.17770000000E+01 0.  1.
         15    1    1    2    0    0  0.46330094653E-01 -0.12956108057E+01 -0.30809960173E+01  0.37856332755E+01  0.17770000000E+01 0. -1.
</event>
<event>
 6    1  0.3691007E-002  0.4597744E+02  0.7546771E-02  0.1316265E+00
        -11   -1    0    0    0    0  0.00000000000E+00  0.00000000000E+00  0.45600000000E+02  0.45600000000E+02  0.00000000000E+00 0. -1.
         11   -1    0    0    0    0 -0.00000000000E+00 -0.00000000000E+00 -0.45600000000E+02  0.45600000000E+02  0.00000000000E+00 0. -1.
        -11    1    1    2    0    0  0.58561598455E-01 -0.72986072104E+00  0.94031855879E+01  0.94316501914E+01  0.00000000000E+00 0. -1.
         11    1    1    2    0    0  0.62031230508E+00 -0.90019235805E+00 -0.45209343557E+02  0.45222559397E+02  0.00000000000E+00 0. -1.
        -15    1    1    2    0    0  0.16260429811E+01  0.41261198172E+00  0.28277134925E+02  0.28382536056E+02  0.17770000000E+01 0. -1.
         15    1    1    2    0    0 -0.23049168847E+01  0.12174410974E+01  0.75290230437E+01  0.81632543549E+01  0.17770000000E+01 0. -1.
</event>
<event>
 6    1  0.3691007E-002  0.4677078E+02  0.7546771E-02  0.1312468E+00
        -11   -1    0    0    0    0  0.00000000000E+00  0.00000000000E+00  0.45600000000E+02  0.45600000000E+02  0.00000000000E+00 0. -1.
         11   -1    0    0    0    0 -0.00000000000E+00 -0.00000000000E+00 -0.45600000000E+02  0.45600000000E+02  0.00000000000E+00 0. -1.
        -11    1    1    2    0    0 -0.17599054945E+00 -0.36275482308E+01  0.31392262341E+02  0.31601648909E+02  0.00000000000E+00 0. -1.
         11    1    1    2    0    0 -0.27470494911E+00 -0.14502711028E+01 -0.44404689673E+02  0.44429215771E+02  0.00000000000E+00 0. -1.
        -15    1    1    2    0    0  0.82752719496E+00  0.58179142370E+00  0.11319658038E+01  0.23371688215E+01  0.17770000000E+01 0. -1.
         15    1    1    2    0    0 -0.37683169640E+00  0.44960279099E+01  0.11880461528E+02  0.12831966499E+02  0.17770000000E+01 0.  1.
</event>
<event>
 6    1  0.3691007E-002  0.4688763E+02  0.7546771E-02  0.1311917E+00
        -11   -1    0    0    0    0  0.00000000000E+00  0.00000000000E+00  0.45600000000E+02  0.45600000000E+02  0.00000000000E+00 0. -1.
         11   -1    0    0    0    0 -0.00000000000E+00 -0.00000000000E+00 -0.45600000000E+02  0.45600000000E+02  0.00000000000E+00 0.  1.
        -11    1    1    2    0    0 -0.11223025295E+01  0.18047986510E+01  0.38570798523E+02  0.38629307007E+02  0.00000000000E+00 0. -1.
         11    1    1    2    0    0 -0.16581794445E+00  0.97012241387E+00 -0.44301437065E+02  0.44312368015E+02  0.00000000000E+00 0.  1.
        -15    1    1    2    0    0 -0.67416140899E-01  0.60580018547E+00  0.15470597239E+01  0.24336519040E+01  0.17770000000E+01 0.  1.
         15    1    1    2    0    0  0.13555366149E+01 -0.33807212503E+01  0.41835788181E+01  0.58246730736E+01  0.17770000000E+01 0.  1.
</event>
<event>
 6    1  0.3691007E-002  0.4746696E+02  0.7546771E-02  0.1309208E+00
        -11   -1    0    0    0    0  0.00000000000E+00  0.00000000000E+00  0.45600000000E+02  0.45600000000E+02  0.00000000000E+00 0. -1.
         11   -1    0    0    0    0 -0.00000000000E+00 -0.00000000000E+00 -0.45600000000E+02  0.45600000000E+02  0.00000000000E+00 0.  1.
        -11    1    1    2    0    0 -0.57888754260E+00  0.26923983279E+01  0.43646244111E+02  0.43733039508E+02  0.00000000000E+00 0. -1.
         11    1    1    2    0    0 -0.41979091366E+01  0.28720559395E+00 -0.29692405092E+02  0.29989062145E+02  0.00000000000E+00 0.  1.
        -15    1    1    2    0    0  0.19436711178E+01 -0.53136695691E+01 -0.10804823835E+02  0.12325375808E+02  0.17770000000E+01 0.  1.
         15    1    1    2    0    0  0.28331255614E+01  0.23340656472E+01 -0.31490151845E+01  0.51525225399E+01  0.17770000000E+01 0.  1.
</event>
<event>
 6    1  0.3691007E-002  0.4676995E+02  0.7546771E-02  0.1312472E+00
        -11   -1    0    0    0    0  0.00000000000E+00  0.00000000000E+00  0.45600000000E+02  0.45600000000E+02  0.00000000000E+00 0.  1.
         11   -1    0    0    0    0 -0.00000000000E+00 -0.00000000000E+00 -0.45600000000E+02  0.45600000000E+02  0.00000000000E+00 0.  1.
        -11    1    1    2    0    0  0.38491312425E+00  0.10760462645E+01  0.17541428911E+02  0.17578616609E+02  0.00000000000E+00 0.  1.
         11    1    1    2    0    0 -0.21671778031E+01 -0.28092896245E+01 -0.44288150270E+02  0.44430046389E+02  0.00000000000E+00 0.  1.
        -15    1    1    2    0    0  0.86731877423E+00 -0.41264226563E+01  0.17313043090E+02  0.17907506690E+02  0.17770000000E+01 0.  1.
         15    1    1    2    0    0  0.91494590462E+00  0.58596660163E+01  0.94336782688E+01  0.11283830312E+02  0.17770000000E+01 0. -1.
</event>
<event>
 6    1  0.3691007E-002  0.5226533E+02  0.7546771E-02  0.1288355E+00
        -11   -1    0    0    0    0  0.00000000000E+00  0.00000000000E+00  0.45600000000E+02  0.45600000000E+02  0.00000000000E+00 0. -1.
         11   -1    0    0    0    0 -0.00000000000E+00 -0.00000000000E+00 -0.45600000000E+02  0.45600000000E+02  0.00000000000E+00 0. -1.
        -11    1    1    2    0    0 -0.54938685601E+00 -0.51677624456E+00  0.33669744976E+02  0.33678191911E+02  0.00000000000E+00 0. -1.
         11    1    1    2    0    0  0.53028554448E+00 -0.78078907690E+00 -0.38923228873E+02  0.38934670671E+02  0.00000000000E+00 0. -1.
        -15    1    1    2    0    0  0.10720462458E+01 -0.89189421954E+00  0.11464646066E+02  0.11685058702E+02  0.17770000000E+01 0.  1.
         15    1    1    2    0    0 -0.10529449343E+01  0.21894595410E+01 -0.62111621688E+01  0.69020787161E+01  0.17770000000E+01 0. -1.
</event>
<event>
 6    1  0.3691007E-002  0.5166811E+02  0.7546771E-02  0.1290808E+00
        -11   -1    0    0    0    0  0.00000000000E+00  0.00000000000E+00  0.45600000000E+02  0.45600000000E+02  0.00000000000E+00 0.  1.
         11   -1    0    0    0    0 -0.00000000000E+00 -0.00000000000E+00 -0.45600000000E+02  0.45600000000E+02  0.00000000000E+00 0. -1.
        -11    1    1    2    0    0 -0.48553847234E+00 -0.41318583454E+00  0.34577816214E+02  0.34583693329E+02  0.00000000000E+00 0.  1.
         11    1    1    2    0    0 -0.30597376639E+00 -0.27290347886E+01 -0.39436393976E+02  0.39531891185E+02  0.00000000000E+00 0. -1.
        -15    1    1    2    0    0 -0.31884950306E+00 -0.23731221723E+01  0.92569800083E+01  0.97253679480E+01  0.17770000000E+01 0.  1.
         15    1    1    2    0    0  0.11103617418E+01  0.55153427954E+01 -0.43984022467E+01  0.73590475384E+01  0.17770000000E+01 0. -1.
</event>
<event>
 6    1  0.3691007E-002  0.4614125E+02  0.7546771E-02  0.1315474E+00
        -11   -1    0    0    0    0  0.00000000000E+00  0.00000000000E+00  0.45600000000E+02  0.45600000000E+02  0.00000000000E+00 0. -1.
         11   -1    0    0    0    0 -0.00000000000E+00 -0.00000000000E+00 -0.45600000000E+02  0.45600000000E+02  0.00000000000E+00 0. -1.
        -11    1    1    2    0    0  0.31840953675E+00  0.63104712113E+00  0.31625828183E+02  0.31633725885E+02  0.00000000000E+00 0. -1.
         11    1    1    2    0    0  0.60631981810E+00  0.42804238683E+00 -0.45052641381E+02  0.45058754304E+02  0.00000000000E+00 0. -1.
        -15    1    1    2    0    0 -0.60501424754E+00  0.14718891547E+01  0.58062723475E+01  0.62771830861E+01  0.17770000000E+01 0. -1.
         15    1    1    2    0    0 -0.31971510731E+00 -0.25309786626E+01  0.76205408510E+01  0.82303367247E+01  0.17770000000E+01 0.  1.
</event>
<event>
 6    1  0.3691007E-002  0.4965246E+02  0.7546771E-02  0.1299375E+00
        -11   -1    0    0    0    0  0.00000000000E+00  0.00000000000E+00  0.45600000000E+02  0.45600000000E+02  0.00000000000E+00 0. -1.
         11   -1    0    0    0    0 -0.00000000000E+00 -0.00000000000E+00 -0.45600000000E+02  0.45600000000E+02  0.00000000000E+00 0. -1.
        -11    1    1    2    0    0 -0.39537021219E+00 -0.52465954264E+00  0.26954847021E+02  0.26962851540E+02  0.00000000000E+00 0. -1.
         11    1    1    2    0    0  0.14239575590E+01 -0.45976439599E+01 -0.41267808967E+02  0.41547539542E+02  0.00000000000E+00 0. -1.
        -15    1    1    2    0    0 -0.58859522023E+01  0.59725093997E+01  0.13116019286E+01  0.86714087942E+01  0.17770000000E+01 0. -1.
         15    1    1    2    0    0  0.48573648555E+01 -0.85020589718E+00  0.13001360017E+02  0.14018200123E+02  0.17770000000E+01 0. -1.
</event>
<event>
 6    1  0.3691007E-002  0.4275891E+02  0.7546771E-02  0.1332624E+00
        -11   -1    0    0    0    0  0.00000000000E+00  0.00000000000E+00  0.45600000000E+02  0.45600000000E+02  0.00000000000E+00 0. -1.
         11   -1    0    0    0    0 -0.00000000000E+00 -0.00000000000E+00 -0.45600000000E+02  0.45600000000E+02  0.00000000000E+00 0.  1.
        -11    1    1    2    0    0 -0.24546032207E+01 -0.17752986431E+01  0.42749122712E+02  0.42856321061E+02  0.00000000000E+00 0. -1.
         11    1    1    2    0    0  0.11874010746E+01 -0.37588858079E+00 -0.42679801770E+02  0.42697970592E+02  0.00000000000E+00 0.  1.
        -15    1    1    2    0    0  0.53960339074E+00  0.18187367554E+01  0.16232140126E+01  0.30645599905E+01  0.17770000000E+01 0. -1.
         15    1    1    2    0    0  0.72759875538E+00  0.33245046852E+00 -0.16925349551E+01  0.25811483563E+01  0.17770000000E+01 0.  1.
</event>
<event>
 6    1  0.3691007E-002  0.4676549E+02  0.7546771E-02  0.1312494E+00
        -11   -1    0    0    0    0  0.00000000000E+00  0.00000000000E+00  0.45600000000E+02  0.45600000000E+02  0.00000000000E+00 0. -1.
         11   -1    0    0    0    0 -0.00000000000E+00 -0.00000000000E+00 -0.45600000000E+02  0.45600000000E+02  0.00000000000E+00 0.  1.
        -11    1    1    2    0    0  0.61457244094E-01 -0.81858881810E+00  0.44426923091E+02  0.44434506411E+02  0.00000000000E+00 0. -1.
         11    1    1    2    0    0 -0.15539473076E+00  0.97542996058E+00 -0.35842772835E+02  0.35856379846E+02  0.00000000000E+00 0.  1.
        -15    1    1    2    0    0  0.82214456591E+00  0.42283029556E+00  0.90884481194E-01  0.20051673584E+01  0.17770000000E+01 0. -1.
         15    1    1    2    0    0 -0.72820707924E+00 -0.57967143804E+00 -0.86750347370E+01  0.89039463843E+01  0.17770000000E+01 0.  1.
</event>
<event>
 6    1  0.3691007E-002  0.4579987E+02  0.7546771E-02  0.1317127E+00
        -11   -1    0    0    0    0  0.00000000000E+00  0.00000000000E+00  0.45600000000E+02  0.45600000000E+02  0.00000000000E+00 0. -1.
         11   -1    0    0    0    0 -0.00000000000E+00 -0.00000000000E+00 -0.45600000000E+02  0.45600000000E+02  0.00000000000E+00 0.  1.
        -11    1    1    2    0    0  0.75576590233E+00  0.26693408320E+01  0.45315284929E+02  0.45400127872E+02  0.00000000000E+00 0. -1.
         11    1    1    2    0    0  0.69176231851E+00  0.43969122191E+00 -0.14851602849E+02  0.14874204875E+02  0.00000000000E+00 0.  1.
        -15    1    1    2    0    0 -0.23115878530E+00 -0.22269797391E+01 -0.13207057550E+02  0.13512844677E+02  0.17770000000E+01 0.  1.
         15    1    1    2    0    0 -0.12163694355E+01 -0.88205231481E+00 -0.17256624530E+02  0.17412822576E+02  0.17770000000E+01 0. -1.
</event>
<event>
 6    1  0.3691007E-002  0.4780370E+02  0.7546771E-02  0.1307653E+00
        -11   -1    0    0    0    0  0.00000000000E+00  0.00000000000E+00  0.45600000000E+02  0.45600000000E+02  0.00000000000E+00 0. -1.
         11   -1    0    0    0    0 -0.00000000000E+00 -0.00000000000E+00 -0.45600000000E+02  0.45600000000E+02  0.00000000000E+00 0.  1.
        -11    1    1    2    0    0 -0.74928333047E+00 -0.36689488524E+00  0.43388279609E+02  0.43396299898E+02  0.00000000000E+00 0. -1.
         11    1    1    2    0    0 -0.73216961837E+00 -0.30868459706E+00 -0.41295838341E+02  0.41303481969E+02  0.00000000000E+00 0.  1.
        -15    1    1    2    0    0  0.13514875483E+01 -0.23262475024E+00 -0.34264843228E+01  0.40962368928E+01  0.17770000000E+01 0.  1.
         15    1    1    2    0    0  0.12996540055E+00  0.90820423254E+00  0.13340430541E+01  0.24039812403E+01  0.17770000000E+01 0.  1.
</event>
<event>
 6    1  0.3691007E-002  0.4769084E+02  0.7546771E-02  0.1308173E+00
        -11   -1    0    0    0    0  0.00000000000E+00  0.00000000000E+00  0.45600000000E+02  0.45600000000E+02  0.00000000000E+00 0. -1.
         11   -1    0    0    0    0 -0.00000000000E+00 -0.00000000000E+00 -0.45600000000E+02  0.45600000000E+02  0.00000000000E+00 0.  1.
        -11    1    1    2    0    0 -0.27272974931E+00  0.11920273671E+01  0.43491973895E+02  0.43509161151E+02  0.00000000000E+00 0. -1.
         11    1    1    2    0    0 -0.62556589317E-01 -0.93175546229E+00 -0.41169627773E+02  0.41180217733E+02  0.00000000000E+00 0.  1.
        -15    1    1    2    0    0  0.14282007883E+00  0.80275273599E+00  0.12900493948E+01  0.23423846762E+01  0.17770000000E+01 0. -1.
         15    1    1    2    0    0  0.19246625980E+00 -0.10630246408E+01 -0.36123955168E+01  0.41682364398E+01  0.17770000000E+01 0. -1.
</event>
<event>
 6    1  0.3691007E-002  0.4703163E+02  0.7546771E-02  0.1311239E+00
        -11   -1    0    0    0    0  0.00000000000E+00  0.00000000000E+00  0.45600000000E+02  0.45600000000E+02  0.00000000000E+00 0. -1.
         11   -1    0    0    0    0 -0.00000000000E+00 -0.00000000000E+00 -0.45600000000E+02  0.45600000000E+02  0.00000000000E+00 0.  1.
        -11    1    1    2    0    0 -0.46283747469E+00 -0.39690035712E+00  0.27501523582E+02  0.27508281440E+02  0.00000000000E+00 0. -1.
         11    1    1    2    0    0 -0.26457129006E+01  0.15875391697E+00 -0.44088770688E+02  0.44168367644E+02  0.00000000000E+00 0.  1.
        -15    1    1    2    0    0  0.12316689516E+01 -0.37908934939E+01  0.12462616654E+02  0.13204636487E+02  0.17770000000E+01 0. -1.
         15    1    1    2    0    0  0.18768814237E+01  0.40290399341E+01  0.41246304516E+01  0.63187144287E+01  0.17770000000E+01 0.  1.
</event>
<event>
 6    1  0.3691007E-002  0.4718917E+02  0.7546771E-02  0.1310501E+00
        -11   -1    0    0    0    0  0.00000000000E+00  0.00000000000E+00  0.45600000000E+02  0.45600000000E+02  0.00000000000E+00 0.  1.
         11   -1    0    0    0    0 -0.00000000000E+00 -0.00000000000E+00 -0.45600000000E+02  0.45600000000E+02  0.00000000000E+00 0. -1.
        -11    1    1    2    0    0  0.22782902361E+01  0.22569901551E+01  0.43893837073E+02  0.44010834393E+02  0.00000000000E+00 0.  1.
         11    1    1    2    0    0  0.10169214051E+01  0.86011989111E+00 -0.31233267861E+02  0.31261653134E+02  0.00000000000E+00 0. -1.
        -15    1    1    2    0    0 -0.50218865307E+01 -0.29550543240E+00 -0.99708748355E+01  0.11308525181E+02  0.17770000000E+01 0. -1.
         15    1    1    2    0    0  0.17266748896E+01 -0.28216046139E+01 -0.26896943758E+01  0.46189872923E+01  0.17770000000E+01 0.  1.
</event>
<event>
 6    1  0.3691007E-002  0.4602199E+02  0.7546771E-02  0.1316049E+00
        -11   -1    0    0    0    0  0.00000000000E+00  0.00000000000E+00  0.45600000000E+02  0.45600000000E+02  0.00000000000E+00 0. -1.
         11   -1    0    0    0    0 -0.00000000000E+00 -0.00000000000E+00 -0.45600000000E+02  0.45600000000E+02  0.00000000000E+00 0.  1.
        -11    1    1    2    0    0 -0.16156613594E-01  0.12855144584E+01  0.63833649906E+01  0.65115402987E+01  0.00000000000E+00 0. -1.
         11    1    1    2    0    0 -0.83917982398E+00  0.96376488625E-02 -0.45170212994E+02  0.45178008562E+02  0.00000000000E+00 0.  1.
        -15    1    1    2    0    0  0.31606762801E+01 -0.12763701187E+01  0.30199979127E+02  0.30443644057E+02  0.17770000000E+01 0. -1.
         15    1    1    2    0    0 -0.23053398425E+01 -0.18781988552E-01  0.85868688772E+01  0.90668070822E+01  0.17770000000E+01 0.  1.
</event>
<event>
 6    1  0.3691007E-002  0.4683727E+02  0.7546771E-02  0.1312154E+00
        -11   -1    0    0    0    0  0.00000000000E+00  0.00000000000E+00  0.45600000000E+02  0.45600000000E+02  0.00000000000E+00 0.  1.
         11   -1    0    0    0    0 -0.00000000000E+00 -0.00000000000E+00 -0.45600000000E+02  0.45600000000E+02  0.00000000000E+00 0. -1.
        -11    1    1    2    0    0 -0.18979700569E+01  0.19446668975E+00  0.44321682002E+02  0.44362727634E+02  0.00000000000E+00 0.  1.
         11    1    1    2    0    0 -0.91591455915E+00  0.88307300503E-01 -0.21696788877E+02  0.21716292161E+02  0.00000000000E+00 0. -1.
        -15    1    1    2    0    0  0.16964056189E+01 -0.87345066577E+00 -0.22785678659E+02  0.22934375707E+02  0.17770000000E+01 0.  1.
         15    1    1    2    0    0  0.11174789971E+01  0.59067667552E+00  0.16078553355E+00  0.21866044983E+01  0.17770000000E+01 0.  1.
</event>
<event>
 6    1  0.3691007E-002  0.4690629E+02  0.7546771E-02  0.1311829E+00
        -11   -1    0    0    0    0  0.00000000000E+00  0.00000000000E+00  0.45600000000E+02  0.45600000000E+02  0.00000000000E+00 0.  1.
         11   -1    0    0    0    0 -0.00000000000E+00 -0.00000000000E+00 -0.45600000000E+02  0.45600000000E+02  0.00000000000E+00 0.  1.
        -11    1    1    2    0    0 -0.34040203337E+00  0.13976317670E+01  0.27270327327E+02  0.27308240526E+02  0.00000000000E+00 0.  1.
         11    1    1    2    0    0  0.26196493597E+00  0.11273091561E+01 -0.44278588147E+02  0.44293710839E+02  0.00000000000E+00 0.  1.
        -15    1    1    2    0    0  0.16186256878E+01 -0.11408898725E+01  0.16632124403E+02  0.16843600268E+02  0.17770000000E+01 0.  1.
         15    1    1    2    0    0 -0.15401885904E+01 -0.13840510506E+01  0.37613641737E+00  0.27544483675E+01  0.17770000000E+01 0.  1.
</event>
<event>
 6    1  0.3691007E-002  0.4661147E+02  0.7546771E-02  0.1313224E+00
        -11   -1    0    0    0    0  0.00000000000E+00  0.00000000000E+00  0.45600000000E+02  0.45600000000E+02  0.00000000000E+00 0. -1.
         11   -1    0    0    0    0 -0.00000000000E+00 -0.00000000000E+00 -0.45600000000E+02  0.45600000000E+02  0.00000000000E+00 0. -1.
        -11    1    1    2    0    0  0.59293730993E+00  0.16699181615E-01  0.31547876856E+02  0.31553452864E+02  0.00000000000E+00 0. -1.
         11    1    1    2    0    0 -0.95813882503E+00 -0.57650716840E+00 -0.44574506407E+02  0.44588530049E+02  0.00000000000E+00 0. -1.
        -15    1    1    2    0    0  0.29592683213E+01 -0.24125607088E+00  0.32132034509E+01  0.47220629926E+01  0.17770000000E+01 0. -1.
         15    1    1    2    0    0 -0.25940668062E+01  0.80106405767E+00  0.98134260995E+01  0.10335954094E+02  0.17770000000E+01 0. -1.
</event>
<event>
 6    1  0.3691007E-002  0.4648960E+02  0.7546771E-02  0.1313804E+00
        -11   -1    0    0    0    0  0.00000000000E+00  0.00000000000E+00  0.45600000000E+02  0.45600000000E+02  0.00000000000E+00 0.  1.
         11   -1    0    0    0    0 -0.00000000000E+00 -0.00000000000E+00 -0.45600000000E+02  0.45600000000E+02  0.00000000000E+00 0.  1.
        -11    1    1    2    0    0 -0.12152149595E+01  0.29189140760E+01  0.44598464740E+02  0.44710399952E+02  0.00000000000E+00 0.  1.
         11    1    1    2    0    0  0.62925104499E+00  0.72311400759E+00 -0.34139916561E+02  0.34153371042E+02  0.00000000000E+00 0.  1.
        -15    1    1    2    0    0  0.37851238719E+00 -0.29837788072E+01 -0.28977784911E+01  0.45388387040E+01  0.17770000000E+01 0.  1.
         15    1    1    2    0    0  0.20745152734E+00 -0.65824927643E+00 -0.75607696873E+01  0.77973903013E+01  0.17770000000E+01 0.  1.
</event>
<event>
 6    1  0.3691007E-002  0.4774800E+02  0.7546771E-02  0.1307910E+00
        -11   -1    0    0    0    0  0.00000000000E+00  0.00000000000E+00  0.45600000000E+02  0.45600000000E+02  0.00000000000E+00 0. -1.
         11   -1    0    0    0    0 -0.00000000000E+00 -0.00000000000E+00 -0.45600000000E+02  0.45600000000E+02  0.00000000000E+00 0.  1.
        -11    1    1    2    0    0 -0.22672834654E+01  0.17827916954E-01  0.43392808676E+02  0.43452004982E+02  0.00000000000E+00 0. -1.
         11    1    1    2    0    0  0.26069354267E+01  0.11988526948E+01 -0.40522279231E+02  0.40623742739E+02  0.00000000000E+00 0.  1.
        -15    1    1    2    0    0 -0.97037300368E+00 -0.48680413345E+00 -0.42113976345E+01  0.46981061149E+01  0.17770000000E+01 0.  1.
         15    1    1    2    0    0  0.63072104231E+00 -0.72987647831E+00  0.13408681889E+01  0.24261461635E+01  0.17770000000E+01 0. -1.
</event>
<event>
 6    1  0.3691007E-002  0.4650066E+02  0.7546771E-02  0.1313751E+00
        -11   -1    0    0    0    0  0.00000000000E+00  0.00000000000E+00  0.45600000000E+02  0.45600000000E+02  0.00000000000E+00 0. -1.
         11   -1    0    0    0    0 -0.00000000000E+00 -0.00000000000E+00 -0.45600000000E+02  0.45600000000E+02  0.00000000000E+00 0. -1.
        -11    1    1    2    0    0  0.47015165638E+00  0.53059525613E+00  0.11630099812E+02  0.11651686382E+02  0.00000000000E+00 0. -1.
         11    1    1    2    0    0  0.12435221303E+01  0.27084994436E+01 -0.44599875421E+02  0.44699342322E+02  0.00000000000E+00 0. -1.
        -15    1    1    2    0    0 -0.38695214282E+01  0.20022729281E+01  0.20553342190E+02  0.21085063366E+02  0.17770000000E+01 0. -1.
         15    1    1    2    0    0  0.21558476415E+01 -0.52413676279E+01  0.12416433418E+02  0.13763907930E+02  0.17770000000E+01 0.  1.
</event>
<event>
 6    1  0.3691007E-002  0.4800952E+02  0.7546771E-02  0.1306711E+00
        -11   -1    0    0    0    0  0.00000000000E+00  0.00000000000E+00  0.45600000000E+02  0.45600000000E+02  0.00000000000E+00 0. -1.
         11   -1    0    0    0    0 -0.00000000000E+00 -0.00000000000E+00 -0.45600000000E+02  0.45600000000E+02  0.00000000000E+00 0.  1.
        -11    1    1    2    0    0  0.63811713028E+00 -0.41762161336E-01  0.43185741740E+02  0.43190476117E+02  0.00000000000E+00 0. -1.
         11    1    1    2    0    0  0.12058862408E+00 -0.10150465931E+01 -0.36691848869E+02  0.36706084436E+02  0.00000000000E+00 0.  1.
        -15    1    1    2    0    0  0.17225921763E+01 -0.41311717836E+00  0.12849458267E+01  0.28190076953E+01  0.17770000000E+01 0.  1.
         15    1    1    2    0    0 -0.24812979306E+01  0.14699259328E+01 -0.77788386974E+01  0.84844317517E+01  0.17770000000E+01 0.  1.
</event>
<event>
 6    1  0.3691007E-002  0.4228109E+02  0.7546771E-02  0.1335194E+00
        -11   -1    0    0    0    0  0.00000000000E+00  0.00000000000E+00  0.45600000000E+02  0.45600000000E+02  0.00000000000E+00 0. -1.
         11   -1    0    0    0    0 -0.00000000000E+00 -0.00000000000E+00 -0.45600000000E+02  0.45600000000E+02  0.00000000000E+00 0. -1.
        -11    1    1    2    0    0 -0.77909633458E+00 -0.31216994171E+01  0.41339000993E+02  0.41464020565E+02  0.00000000000E+00 0. -1.
         11    1    1    2    0    0 -0.65548745764E+00 -0.21416993337E+00 -0.43190849784E+02  0.43196354449E+02  0.00000000000E+00 0. -1.
        -15    1    1    2    0    0  0.21372604691E+01  0.32587145108E+01  0.80050939312E+00  0.43572522149E+01  0.17770000000E+01 0. -1.
         15    1    1    2    0    0 -0.70267667692E+00  0.77154839690E-01  0.10513393986E+01  0.21823727713E+01  0.17770000000E+01 0.  1.
</event>
<event>
 6    1  0.3691007E-002  0.4897092E+02  0.7546771E-02  0.1302378E+00
        -11   -1    0    0    0    0  0.00000000000E+00  0.00000000000E+00  0.45600000000E+02  0.45600000000E+02  0.00000000000E+00 0. -1.
         11   -1    0    0    0    0 -0.00000000000E+00 -0.00000000000E+00 -0.45600000000E+02  0.45600000000E+02  0.00000000000E+00 0.  1.
        -11    1    1    2    0    0  0.28059482807E+01  0.18161752896E+01  0.42096600202E+02  0.42229084610E+02  0.00000000000E+00 0. -1.
         11    1    1    2    0    0 -0.35713214205E+01 -0.20397665783E+01 -0.38585063951E+02  0.38803635712E+02  0.00000000000E+00 0.  1.
        -15    1    1    2    0    0 -0.32764375124E+01  0.22718621970E+01 -0.38418153483E+00  0.43819773010E+01  0.17770000000E+01 0. -1.
         15    1    1    2    0    0  0.40418106522E+01 -0.20482709084E+01 -0.31273547162E+01  0.57853023761E+01  0.17770000000E+01 0.  1.
</event>
<event>
 6    1  0.3691007E-002  0.4671088E+02  0.7546771E-02  0.1312752E+00
        -11   -1    0    0    0    0  0.00000000000E+00  0.00000000000E+00  0.45600000000E+02  0.45600000000E+02  0.00000000000E+00 0. -1.
         11   -1    0    0    0    0 -0.00000000000E+00 -0.00000000000E+00 -0.45600000000E+02  0.45600000000E+02  0.00000000000E+00 0. -1.
        -11    1    1    2    0    0 -0.37514442248E+00  0.36769846679E+00  0.25419150735E+02  0.25424577865E+02  0.00000000000E+00 0. -1.
         11    1    1    2    0    0 -0.14574916827E+01 -0.20420898106E+01 -0.44418326326E+02  0.44489123686E+02  0.00000000000E+00 0. -1.
        -15    1    1    2    0    0  0.25554253267E+01 -0.98807071424E+00  0.17057377948E+01  0.36842574233E+01  0.17770000000E+01 0.  1.
         15    1    1    2    0    0 -0.72278922152E+00  0.26624620581E+01  0.17293437796E+02  0.17602041026E+02  0.17770000000E+01 0. -1.
</event>
<event>
 6    1  0.3691007E-002  0.3302656E+02  0.7546771E-02  0.1394385E+00
        -11   -1    0    0    0    0  0.00000000000E+00  0.00000000000E+00  0.45600000000E+02  0.45600000000E+02  0.00000000000E+00 0.  1.
         11   -1    0    0    0    0 -0.00000000000E+00 -0.00000000000E+00 -0.45600000000E+02  0.45600000000E+02  0.00000000000E+00 0. -1.
        -11    1    1    2    0    0  0.67197296756E+01  0.13372654945E+02  0.80376950652E+01  0.16987854755E+02  0.00000000000E+00 0.  1.
         11    1    1    2    0    0 -0.47904325875E+00 -0.42034328803E+00 -0.65655309155E+01  0.65963904619E+01  0.00000000000E+00 0. -1.
        -15    1    1    2    0    0  0.16190904412E+02  0.18587924181E+02 -0.11989561206E+02  0.27469321396E+02  0.17770000000E+01 0.  1.
         15    1    1    2    0    0 -0.22431590829E+02 -0.31540235839E+02  0.10517397056E+02  0.40146433387E+02  0.17770000000E+01 0. -1.
</event>
<event>
 6    1  0.3691007E-002  0.4043497E+02  0.7546771E-02  0.1345507E+00
        -11   -1    0    0    0    0  0.00000000000E+00  0.00000000000E+00  0.45600000000E+02  0.45600000000E+02  0.00000000000E+00 0. -1.
         11   -1    0    0    0    0 -0.00000000000E+00 -0.00000000000E+00 -0.45600000000E+02  0.45600000000E+02  0.00000000000E+00 0.  1.
        -11    1    1    2    0    0  0.29721485978E+01  0.18673660532E+01  0.38843467794E+02  0.39001739878E+02  0.00000000000E+00 0. -1.
         11    1    1    2    0    0  0.22861520310E+01  0.15381401161E+01 -0.42085135043E+02  0.42175241051E+02  0.00000000000E+00 0.  1.
        -15    1    1    2    0    0 -0.37154167476E+01 -0.82609460716E+00 -0.12043920338E+01  0.43697875326E+01  0.17770000000E+01 0. -1.
         15    1    1    2    0    0 -0.15428838812E+01 -0.25794115622E+01  0.44460592829E+01  0.56532315383E+01  0.17770000000E+01 0. -1.
</event>
<event>
 6    1  0.3691007E-002  0.5106718E+02  0.7546771E-02  0.1293314E+00
        -11   -1    0    0    0    0  0.00000000000E+00  0.00000000000E+00  0.45600000000E+02  0.45600000000E+02  0.00000000000E+00 0. -1.
         11   -1    0    0    0    0 -0.00000000000E+00 -0.00000000000E+00 -0.45600000000E+02  0.45600000000E+02  0.00000000000E+00 0. -1.
        -11    1    1    2    0    0 -0.16074308780E+01  0.36236420892E+00  0.40098981393E+02  0.40132822610E+02  0.00000000000E+00 0. -1.
         11    1    1    2    0    0 -0.49136892152E+00 -0.92887379610E+00 -0.38244085658E+02  0.38258519806E+02  0.00000000000E+00 0. -1.
        -15    1    1    2    0    0  0.20987277963E+01  0.15405176999E+01 -0.67833094303E+01  0.74798976580E+01  0.17770000000E+01 0. -1.
         15    1    1    2    0    0  0.72003202817E-04 -0.97400811271E+00  0.49284136948E+01  0.53287599267E+01  0.17770000000E+01 0.  1.
</event>
<event>
 6    1  0.3691007E-002  0.4742881E+02  0.7546771E-02  0.1309385E+00
        -11   -1    0    0    0    0  0.00000000000E+00  0.00000000000E+00  0.45600000000E+02  0.45600000000E+02  0.00000000000E+00 0.  1.
         11   -1    0    0    0    0 -0.00000000000E+00 -0.00000000000E+00 -0.45600000000E+02  0.45600000000E+02  0.00000000000E+00 0.  1.
        -11    1    1    2    0    0  0.30279749161E+01  0.33557589957E+01  0.43537197171E+02  0.43771192445E+02  0.00000000000E+00 0.  1.
         11    1    1    2    0    0 -0.11844453903E+01 -0.10536905817E+00 -0.27624596878E+02  0.27650178412E+02  0.00000000000E+00 0.  1.
        -15    1    1    2    0    0 -0.30826064971E+01 -0.60682441746E+01 -0.14170187397E+02  0.15820176675E+02  0.17770000000E+01 0.  1.
         15    1    1    2    0    0  0.12390769712E+01  0.28178542371E+01 -0.17424128963E+01  0.39584524682E+01  0.17770000000E+01 0. -1.
</event>
<event>
 6    1  0.3691007E-002  0.4859512E+02  0.7546771E-02  0.1304058E+00
        -11   -1    0    0    0    0  0.00000000000E+00  0.00000000000E+00  0.45600000000E+02  0.45600000000E+02  0.00000000000E+00 0.  1.
         11   -1    0    0    0    0 -0.00000000000E+00 -0.00000000000E+00 -0.45600000000E+02  0.45600000000E+02  0.00000000000E+00 0. -1.
        -11    1    1    2    0    0 -0.10184235148E+01  0.51260202956E+00  0.42589626262E+02  0.42604884843E+02  0.00000000000E+00 0.  1.
         11    1    1    2    0    0 -0.10188354668E+01 -0.10101945413E+01 -0.36320135233E+02  0.36348462720E+02  0.00000000000E+00 0. -1.
        -15    1    1    2    0    0 -0.26624830659E+01  0.20855776700E+01  0.29146656625E+00  0.38315965410E+01  0.17770000000E+01 0.  1.
         15    1    1    2    0    0  0.46997420476E+01 -0.15879851583E+01 -0.65609575953E+01  0.84150558967E+01  0.17770000000E+01 0. -1.
</event>
<event>
 6    1  0.3691007E-002  0.4842067E+02  0.7546771E-02  0.1304844E+00
        -11   -1    0    0    0    0  0.00000000000E+00  0.00000000000E+00  0.45600000000E+02  0.45600000000E+02  0.00000000000E+00 0. -1.
         11   -1    0    0    0    0 -0.00000000000E+00 -0.00000000000E+00 -0.45600000000E+02  0.45600000000E+02  0.00000000000E+00 0. -1.
        -11    1    1    2    0    0 -0.10060529989E+01 -0.81004023032E+00  0.42759830030E+02  0.42779333468E+02  0.00000000000E+00 0. -1.
         11    1    1    2    0    0  0.19228959489E+01  0.10623388278E+01 -0.42037403228E+02  0.42094766453E+02  0.00000000000E+00 0. -1.
        -15    1    1    2    0    0 -0.63460137660E+00 -0.25132264551E+01  0.51128496022E+00  0.31840489054E+01  0.17770000000E+01 0.  1.
         15    1    1    2    0    0 -0.28224157342E+00  0.22609278576E+01 -0.12337117622E+01  0.31418511733E+01  0.17770000000E+01 0. -1.
</event>
<event>
 6    1  0.3691007E-002  0.4689697E+02  0.7546771E-02  0.1311873E+00
        -11   -1    0    0    0    0  0.00000000000E+00  0.00000000000E+00  0.45600000000E+02  0.45600000000E+02  0.00000000000E+00 0.  1.
         11   -1    0    0    0    0 -0.00000000000E+00 -0.00000000000E+00 -0.45600000000E+02  0.45600000000E+02  0.00000000000E+00 0. -1.
        -11    1    1    2    0    0  0.72039982110E+00  0.26306835590E+01  0.22646165707E+02  0.22809828871E+02  0.00000000000E+00 0.  1.
         11    1    1    2    0    0 -0.18707134275E+01  0.83357372211E+00 -0.44255671022E+02  0.44303034112E+02  0.00000000000E+00 0. -1.
        -15    1    1    2    0    0  0.35462966376E+01 -0.30354468945E+01  0.20109999018E+02  0.20721002563E+02  0.17770000000E+01 0. -1.
         15    1    1    2    0    0 -0.23959830312E+01 -0.42881038657E+00  0.14995062972E+01  0.33661344550E+01  0.17770000000E+01 0.  1.
</event>
<event>
 6    1  0.3691007E-002  0.4715628E+02  0.7546771E-02  0.1310655E+00
        -11   -1    0    0    0    0  0.00000000000E+00  0.00000000000E+00  0.45600000000E+02  0.45600000000E+02  0.00000000000E+00 0. -1.
         11   -1    0    0    0    0 -0.00000000000E+00 -0.00000000000E+00 -0.45600000000E+02  0.45600000000E+02  0.00000000000E+00 0. -1.
        -11    1    1    2    0    0 -0.18497772154E+00  0.56828868543E+00  0.44039669710E+02  0.44043724604E+02  0.00000000000E+00 0. -1.
         11    1    1    2    0    0 -0.21493796567E+01  0.72579668939E+00 -0.40543332063E+02  0.40606752991E+02  0.00000000000E+00 0. -1.
        -15    1    1    2    0    0  0.30406842565E+00 -0.20521773065E+01 -0.18507235240E+01  0.32995144896E+01  0.17770000000E+01 0. -1.
         15    1    1    2    0    0  0.20302889525E+01  0.75809193168E+00 -0.16456141234E+01  0.32500079155E+01  0.17770000000E+01 0. -1.
</event>
<event>
 6    1  0.3691007E-002  0.5315951E+02  0.7546771E-02  0.1284752E+00
        -11   -1    0    0    0    0  0.00000000000E+00  0.00000000000E+00  0.45600000000E+02  0.45600000000E+02  0.00000000000E+00 0. -1.
         11   -1    0    0    0    0 -0.00000000000E+00 -0.00000000000E+00 -0.45600000000E+02  0.45600000000E+02  0.00000000000E+00 0.  1.
        -11    1    1    2    0    0  0.34021268447E+00 -0.55252618931E+00  0.37281651653E+02  0.37287297835E+02  0.00000000000E+00 0. -1.
         11    1    1    2    0    0 -0.71401673993E+00  0.68979025247E+00 -0.38027537463E+02  0.38040494686E+02  0.00000000000E+00 0.  1.
        -15    1    1    2    0    0  0.14176714331E+01 -0.32189119635E+00 -0.72542087520E+01  0.76088553575E+01  0.17770000000E+01 0. -1.
         15    1    1    2    0    0 -0.10438673776E+01  0.18462713318E+00  0.80000945618E+01  0.82633521211E+01  0.17770000000E+01 0. -1.
</event>
<event>
 6    1  0.3691007E-002  0.4592042E+02  0.7546771E-02  0.1316541E+00
        -11   -1    0    0    0    0  0.00000000000E+00  0.00000000000E+00  0.45600000000E+02  0.45600000000E+02  0.00000000000E+00 0.  1.
         11   -1    0    0    0    0 -0.00000000000E+00 -0.00000000000E+00 -0.45600000000E+02  0.45600000000E+02  0.00000000000E+00 0.  1.
        -11    1    1    2    0    0  0.16122717416E+01  0.14044447012E+01  0.45229066086E+02  0.45279579328E+02  0.00000000000E+00 0.  1.
         11    1    1    2    0    0 -0.22437071358E+00  0.54336948117E+00 -0.28318178687E+02  0.28324279986E+02  0.00000000000E+00 0.  1.
        -15    1    1    2    0    0 -0.46376294361E+00 -0.18294959767E+01 -0.12257588349E+02  0.12528700361E+02  0.17770000000E+01 0.  1.
         15    1    1    2    0    0 -0.92413808445E+00 -0.11831820560E+00 -0.46532990502E+01  0.50674403250E+01  0.17770000000E+01 0. -1.
</event>
<event>
 6    1  0.3691007E-002  0.4779391E+02  0.7546771E-02  0.1307698E+00
        -11   -1    0    0    0    0  0.00000000000E+00  0.00000000000E+00  0.45600000000E+02  0.45600000000E+02  0.00000000000E+00 0.  1.
         11   -1    0    0    0    0 -0.00000000000E+00 -0.00000000000E+00 -0.45600000000E+02  0.45600000000E+02  0.00000000000E+00 0.  1.
        -11    1    1    2    0    0 -0.58058205736E+01  0.45196897870E+01  0.14291063489E+02  0.16073880799E+02  0.00000000000E+00 0.  1.
         11    1    1    2    0    0  0.35152928705E+01 -0.34604926648E+01 -0.43124897014E+02  0.43406094456E+02  0.00000000000E+00 0.  1.
        -15    1    1    2    0    0 -0.49397413222E+01 -0.20270665480E+01  0.14151931656E+02  0.15229738728E+02  0.17770000000E+01 0.  1.
         15    1    1    2    0    0  0.72302690254E+01  0.96786942585E+00  0.14681901870E+02  0.16490286017E+02  0.17770000000E+01 0. -1.
</event>
<event>
 6    1  0.3691007E-002  0.4674322E+02  0.7546771E-02  0.1312599E+00
        -11   -1    0    0    0    0  0.00000000000E+00  0.00000000000E+00  0.45600000000E+02  0.45600000000E+02  0.00000000000E+00 0.  1.
         11   -1    0    0    0    0 -0.00000000000E+00 -0.00000000000E+00 -0.45600000000E+02  0.45600000000E+02  0.00000000000E+00 0. -1.
        -11    1    1    2    0    0 -0.78193003244E+00 -0.68914328262E-01  0.21645295537E+02  0.21659524063E+02  0.00000000000E+00 0.  1.
         11    1    1    2    0    0  0.88403068770E+00 -0.13410827910E+01 -0.44427748856E+02  0.44456775431E+02  0.00000000000E+00 0. -1.
        -15    1    1    2    0    0 -0.75366310444E+00 -0.52882377828E-01  0.22602480663E+02  0.22684811345E+02  0.17770000000E+01 0. -1.
         15    1    1    2    0    0  0.65156244918E+00  0.14628794971E+01  0.17997265552E+00  0.23988891606E+01  0.17770000000E+01 0.  1.
</event>
<event>
 6    1  0.3691007E-002  0.4807681E+02  0.7546771E-02  0.1306404E+00
        -11   -1    0    0    0    0  0.00000000000E+00  0.00000000000E+00  0.45600000000E+02  0.45600000000E+02  0.00000000000E+00 0. -1.
         11   -1    0    0    0    0 -0.00000000000E+00 -0.00000000000E+00 -0.45600000000E+02  0.45600000000E+02  0.00000000000E+00 0. -1.
        -11    1    1    2    0    0  0.11450420953E+01 -0.53419727707E+00  0.32801356323E+02  0.32825683005E+02  0.00000000000E+00 0. -1.
         11    1    1    2    0    0  0.91736517647E+00 -0.10836268587E+00 -0.43113294814E+02  0.43123189713E+02  0.00000000000E+00 0. -1.
        -15    1    1    2    0    0  0.23819780616E+01 -0.11771752556E+01 -0.54928422544E+00  0.32433012855E+01  0.17770000000E+01 0.  1.
         15    1    1    2    0    0 -0.44443853333E+01  0.18197352186E+01  0.10861222716E+02  0.12007825996E+02  0.17770000000E+01 0. -1.
</event>
<event>
 6    1  0.3691007E-002  0.4660859E+02  0.7546771E-02  0.1313238E+00
        -11   -1    0    0    0    0  0.00000000000E+00  0.00000000000E+00  0.45600000000E+02  0.45600000000E+02  0.00000000000E+00 0. -1.
         11   -1    0    0    0    0 -0.00000000000E+00 -0.00000000000E+00 -0.45600000000E+02  0.45600000000E+02  0.00000000000E+00 0.  1.
        -11    1    1    2    0    0  0.71328454814E+00  0.13805214171E+00  0.44585486619E+02  0.44591405565E+02  0.00000000000E+00 0. -1.
         11    1    1    2    0    0 -0.14090565577E+01  0.21305166875E+01 -0.24534442020E+02  0.24667050633E+02  0.00000000000E+00 0.  1.
        -15    1    1    2    0    0 -0.65052807957E-01 -0.12827127339E+01 -0.47221035292E+00  0.22428320140E+01  0.17770000000E+01 0. -1.
         15    1    1    2    0    0  0.76082481748E+00 -0.98585609533E+00 -0.19578834246E+02  0.19698711787E+02  0.17770000000E+01 0. -1.
</event>
<event>
 6    1  0.3691007E-002  0.4731336E+02  0.7546771E-02  0.1309922E+00
        -11   -1    0    0    0    0  0.00000000000E+00  0.00000000000E+00  0.45600000000E+02  0.45600000000E+02  0.00000000000E+00 0. -1.
         11   -1    0    0    0    0 -0.00000000000E+00 -0.00000000000E+00 -0.45600000000E+02  0.45600000000E+02  0.00000000000E+00 0.  1.
        -11    1    1    2    0    0  0.10883843282E+01  0.50362610521E+00  0.30127622451E+02  0.30151481792E+02  0.00000000000E+00 0. -1.
         11    1    1    2    0    0 -0.24776398783E+00  0.32942036178E+01 -0.43762133140E+02  0.43886643315E+02  0.00000000000E+00 0.  1.
        -15    1    1    2    0    0  0.34775489295E+01 -0.13417084842E+00  0.27965817510E+01  0.48051999817E+01  0.17770000000E+01 0. -1.
         15    1    1    2    0    0 -0.43181692700E+01 -0.36636588746E+01  0.10837928938E+02  0.12356674911E+02  0.17770000000E+01 0.  1.
</event>
<event>
 6    1  0.3691007E-002  0.4647615E+02  0.7546771E-02  0.1313868E+00
        -11   -1    0    0    0    0  0.00000000000E+00  0.00000000000E+00  0.45600000000E+02  0.45600000000E+02  0.00000000000E+00 0.  1.
         11   -1    0    0    0    0 -0.00000000000E+00 -0.00000000000E+00 -0.45600000000E+02  0.45600000000E+02  0.00000000000E+00 0. -1.
        -11    1    1    2    0    0  0.97159693746E-01  0.13851898917E+01  0.16642943353E+02  0.16700771075E+02  0.00000000000E+00 0.  1.
         11    1    1    2    0    0 -0.13311335494E+01 -0.15054586775E+01 -0.44678684396E+02  0.44723854504E+02  0.00000000000E+00 0. -1.
        -15    1    1    2    0    0 -0.19327662900E+01  0.35928042309E+00  0.24690575072E+02  0.24832375930E+02  0.17770000000E+01 0.  1.
         15    1    1    2    0    0  0.31667401456E+01 -0.23901163734E+00  0.33451659711E+01  0.49429984915E+01  0.17770000000E+01 0.  1.
</event>
<event>
 6    1  0.3691007E-002  0.4582506E+02  0.7546771E-02  0.1317004E+00
        -11   -1    0    0    0    0  0.00000000000E+00  0.00000000000E+00  0.45600000000E+02  0.45600000000E+02  0.00000000000E+00 0.  1.
         11   -1    0    0    0    0 -0.00000000000E+00 -0.00000000000E+00 -0.45600000000E+02  0.45600000000E+02  0.00000000000E+00 0.  1.
        -11    1    1    2    0    0 -0.26476192337E+00  0.56653193066E+00  0.26347703478E+02  0.26355123522E+02  0.00000000000E+00 0.  1.
         11    1    1    2    0    0  0.26813154988E+01  0.12821009606E+00 -0.45295470735E+02  0.45374944185E+02  0.00000000000E+00 0.  1.
        -15    1    1    2    0    0 -0.16042172488E+01 -0.60586028151E+00  0.90567995358E+01  0.93874345001E+01  0.17770000000E+01 0.  1.
         15    1    1    2    0    0 -0.81233632666E+00 -0.88881745213E-01  0.98909677221E+01  0.10082497793E+02  0.17770000000E+01 0. -1.
</event>
<event>
 6    1  0.3691007E-002  0.4634568E+02  0.7546771E-02  0.1314492E+00
        -11   -1    0    0    0    0  0.00000000000E+00  0.00000000000E+00  0.45600000000E+02  0.45600000000E+02  0.00000000000E+00 0. -1.
         11   -1    0    0    0    0 -0.00000000000E+00 -0.00000000000E+00 -0.45600000000E+02  0.45600000000E+02  0.00000000000E+00 0.  1.
        -11    1    1    2    0    0 -0.72313495928E+00 -0.60599021244E+00  0.24524719940E+02  0.24542861211E+02  0.00000000000E+00 0. -1.
         11    1    1    2    0    0  0.12175094253E+01  0.15546180605E+00 -0.44837519405E+02  0.44854315778E+02  0.00000000000E+00 0.  1.
        -15    1    1    2    0    0 -0.25538749522E+01 -0.20362256542E+01  0.14072294864E+02  0.14555263788E+02  0.17770000000E+01 0.  1.
         15    1    1    2    0    0  0.20595004862E+01  0.24867540606E+01  0.62405046006E+01  0.72475592223E+01  0.17770000000E+01 0.  1.
</event>
<event>
 6    1  0.3691007E-002  0.4579767E+02  0.7546771E-02  0.1317137E+00
        -11   -1    0    0    0    0  0.00000000000E+00  0.00000000000E+00  0.45600000000E+02  0.45600000000E+02  0.00000000000E+00 0.  1.
         11   -1    0    0    0    0 -0.00000000000E+00 -0.00000000000E+00 -0.45600000000E+02  0.45600000000E+02  0.00000000000E+00 0.  1.
        -11    1    1    2    0    0 -0.16798820712E-01  0.67950404758E+00  0.45397240301E+02  0.45402328518E+02  0.00000000000E+00 0.  1.
         11    1    1    2    0    0 -0.39141581776E+00 -0.91088197242E+00 -0.19867546587E+02  0.19892267837E+02  0.00000000000E+00 0.  1.
        -15    1    1    2    0    0 -0.66387397024E+00  0.75032099860E+00 -0.84745427437E+01  0.87166113808E+01  0.17770000000E+01 0.  1.
         15    1    1    2    0    0  0.10720886087E+01 -0.51894307376E+00 -0.17055150970E+02  0.17188792264E+02  0.17770000000E+01 0.  1.
</event>
<event>
 6    1  0.3691007E-002  0.4877717E+02  0.7546771E-02  0.1303242E+00
        -11   -1    0    0    0    0  0.00000000000E+00  0.00000000000E+00  0.45600000000E+02  0.45600000000E+02  0.00000000000E+00 0.  1.
         11   -1    0    0    0    0 -0.00000000000E+00 -0.00000000000E+00 -0.45600000000E+02  0.45600000000E+02  0.00000000000E+00 0.  1.
        -11    1    1    2    0    0 -0.21779284289E+01  0.32825304472E+00  0.42365617667E+02  0.42422832091E+02  0.00000000000E+00 0.  1.
         11    1    1    2    0    0  0.69209169547E+00  0.43434630742E+01 -0.35780390237E+02  0.36049701634E+02  0.00000000000E+00 0.  1.
        -15    1    1    2    0    0 -0.18128322009E+01 -0.55767716154E+01 -0.14326184234E+01  0.62926041339E+01  0.17770000000E+01 0.  1.
         15    1    1    2    0    0  0.32986689343E+01  0.90505549652E+00 -0.51526090067E+01  0.64348621404E+01  0.17770000000E+01 0. -1.
</event>
<event>
 6    1  0.3691007E-002  0.4704301E+02  0.7546771E-02  0.1311186E+00
        -11   -1    0    0    0    0  0.00000000000E+00  0.00000000000E+00  0.45600000000E+02  0.45600000000E+02  0.00000000000E+00 0. -1.
         11   -1    0    0    0    0 -0.00000000000E+00 -0.00000000000E+00 -0.45600000000E+02  0.45600000000E+02  0.00000000000E+00 0. -1.
        -11    1    1    2    0    0  0.20563848713E+01 -0.75123384892E+00  0.44102678957E+02  0.44156985429E+02  0.00000000000E+00 0. -1.
         11    1    1    2    0    0 -0.77249250915E+00 -0.55955332311E+00 -0.40454413186E+02  0.40465656931E+02  0.00000000000E+00 0. -1.
        -15    1    1    2    0    0 -0.25255722587E+01  0.11417120635E+01 -0.23474219038E+01  0.40435306682E+01  0.17770000000E+01 0. -1.
         15    1    1    2    0    0  0.12416798966E+01  0.16907510857E+00 -0.13008438668E+01  0.25338269719E+01  0.17770000000E+01 0. -1.
</event>
<event>
 6    1  0.3691007E-002  0.4199652E+02  0.7546771E-02  0.1336744E+00
        -11   -1    0    0    0    0  0.00000000000E+00  0.00000000000E+00  0.45600000000E+02  0.45600000000E+02  0.00000000000E+00 0. -1.
         11   -1    0    0    0    0 -0.00000000000E+00 -0.00000000000E+00 -0.45600000000E+02  0.45600000000E+02  0.00000000000E+00 0.  1.
        -11    1    1    2    0    0 -0.11669510710E+00  0.95046898281E+00  0.42313054082E+02  0.42323888701E+02  0.00000000000E+00 0. -1.
         11    1    1    2    0    0  0.20716510540E+01 -0.30764670829E+01 -0.41557018267E+02  0.41722202183E+02  0.00000000000E+00 0.  1.
        -15    1    1    2    0    0 -0.28148919854E+01  0.33449134907E+01 -0.17646232993E-01  0.47191210558E+01  0.17770000000E+01 0. -1.
         15    1    1    2    0    0  0.85993603850E+00 -0.12189153906E+01 -0.73838958225E+00  0.24347880596E+01  0.17770000000E+01 0. -1.
</event>
<event>
 6    1  0.3691007E-002  0.4850808E+02  0.7546771E-02  0.1304449E+00
        -11   -1    0    0    0    0  0.00000000000E+00  0.00000000000E+00  0.45600000000E+02  0.45600000000E+02  0.00000000000E+00 0. -1.
         11   -1    0    0    0    0 -0.00000000000E+00 -0.00000000000E+00 -0.45600000000E+02  0.45600000000E+02  0.00000000000E+00 0.  1.
        -11    1    1    2    0    0  0.12750020186E+01  0.56324353068E+00  0.23257595215E+02  0.23299326355E+02  0.00000000000E+00 0. -1.
         11    1    1    2    0    0  0.89957407108E+00  0.15916515291E+00 -0.42682148103E+02  0.42691923519E+02  0.00000000000E+00 0.  1.
        -15    1    1    2    0    0  0.67935146217E+00 -0.41214607666E+01  0.19893651819E+02  0.20404976573E+02  0.17770000000E+01 0. -1.
         15    1    1    2    0    0 -0.28539275518E+01  0.33990520830E+01 -0.46909893060E+00  0.48037735522E+01  0.17770000000E+01 0.  1.
</event>
<event>
 6    1  0.3691007E-002  0.4166444E+02  0.7546771E-02  0.1338570E+00
        -11   -1    0    0    0    0  0.00000000000E+00  0.00000000000E+00  0.45600000000E+02  0.45600000000E+02  0.00000000000E+00 0. -1.
         11   -1    0    0    0    0 -0.00000000000E+00 -0.00000000000E+00 -0.45600000000E+02  0.45600000000E+02  0.00000000000E+00 0.  1.
        -11    1    1    2    0    0  0.20208284166E+01 -0.80245134552E+00  0.42574686761E+02  0.42630172747E+02  0.00000000000E+00 0. -1.
         11    1    1    2    0    0 -0.52199527428E+01  0.23440593926E+01 -0.40399485782E+02  0.40802707907E+02  0.00000000000E+00 0.  1.
        -15    1    1    2    0    0  0.97855511657E+00  0.16638487148E+00  0.17098845908E+01  0.26583243511E+01  0.17770000000E+01 0. -1.
         15    1    1    2    0    0  0.22205692097E+01 -0.17079929185E+01 -0.38850855691E+01  0.51087949953E+01  0.17770000000E+01 0.  1.
</event>
<event>
 6    1  0.3691007E-002  0.4609644E+02  0.7546771E-02  0.1315690E+00
        -11   -1    0    0    0    0  0.00000000000E+00  0.00000000000E+00  0.45600000000E+02  0.45600000000E+02  0.00000000000E+00 0.  1.
         11   -1    0    0    0    0 -0.00000000000E+00 -0.00000000000E+00 -0.45600000000E+02  0.45600000000E+02  0.00000000000E+00 0. -1.
        -11    1    1    2    0    0 -0.14905496978E+01  0.28763091873E+01  0.44987071914E+02  0.45103564519E+02  0.00000000000E+00 0.  1.
         11    1    1    2    0    0 -0.75396670333E+00 -0.32978059789E-01 -0.21977512944E+02  0.21990466765E+02  0.00000000000E+00 0. -1.
        -15    1    1    2    0    0 -0.10313325706E+01 -0.50078754212E+00 -0.33655198080E+01  0.39747814546E+01  0.17770000000E+01 0.  1.
         15    1    1    2    0    0  0.32758489717E+01 -0.23425435854E+01 -0.19644039162E+02  0.20131187261E+02  0.17770000000E+01 0.  1.
</event>
<event>
 6    1  0.3691007E-002  0.3872193E+02  0.7546771E-02  0.1355664E+00
        -11   -1    0    0    0    0  0.00000000000E+00  0.00000000000E+00  0.45600000000E+02  0.45600000000E+02  0.00000000000E+00 0. -1.
         11   -1    0    0    0    0 -0.00000000000E+00 -0.00000000000E+00 -0.45600000000E+02  0.45600000000E+02  0.00000000000E+00 0. -1.
        -11    1    1    2    0    0 -0.88930492714E+00  0.12444982591E+01  0.40390274735E+02  0.40419227261E+02  0.00000000000E+00 0. -1.
         11    1    1    2    0    0  0.41512927548E+01  0.56768934035E+01 -0.36817984703E+02  0.37483654409E+02  0.00000000000E+00 0. -1.
        -15    1    1    2    0    0 -0.25304352744E+01 -0.57347208650E+01 -0.67611731006E+01  0.93894257958E+01  0.17770000000E+01 0.  1.
         15    1    1    2    0    0 -0.73155255326E+00 -0.11866707975E+01  0.31888830688E+01  0.39076925348E+01  0.17770000000E+01 0. -1.
</event>
<event>
 6    1  0.3691007E-002  0.4662604E+02  0.7546771E-02  0.1313155E+00
        -11   -1    0    0    0    0  0.00000000000E+00  0.00000000000E+00  0.45600000000E+02  0.45600000000E+02  0.00000000000E+00 0.  1.
         11   -1    0    0    0    0 -0.00000000000E+00 -0.00000000000E+00 -0.45600000000E+02  0.45600000000E+02  0.00000000000E+00 0. -1.
        -11    1    1    2    0    0 -0.81003162572E+00 -0.27210889996E-01  0.34878710624E+02  0.34888126153E+02  0.00000000000E+00 0.  1.
         11    1    1    2    0    0  0.18737895719E+01  0.17078084878E+01 -0.44501801086E+02  0.44573960976E+02  0.00000000000E+00 0. -1.
        -15    1    1    2    0    0  0.12540224437E+01  0.37950870073E+00  0.69002263411E+01  0.72448224065E+01  0.17770000000E+01 0. -1.
         15    1    1    2    0    0 -0.23177803900E+01 -0.20601062986E+01  0.27228641212E+01  0.44930904642E+01  0.17770000000E+01 0. -1.
</event>
<event>
 6    1  0.3691007E-002  0.4581395E+02  0.7546771E-02  0.1317058E+00
        -11   -1    0    0    0    0  0.00000000000E+00  0.00000000000E+00  0.45600000000E+02  0.45600000000E+02  0.00000000000E+00 0. -1.
         11   -1    0    0    0    0 -0.00000000000E+00 -0.00000000000E+00 -0.45600000000E+02  0.45600000000E+02  0.00000000000E+00 0. -1.
        -11    1    1    2    0    0 -0.16409927693E+01  0.15627873560E+01  0.45329437926E+02  0.45386045260E+02  0.00000000000E+00 0. -1.
         11    1    1    2    0    0 -0.71714873609E+00 -0.17422162318E+00 -0.94067085642E+01  0.94356145267E+01  0.00000000000E+00 0. -1.
        -15    1    1    2    0    0  0.22399448471E+01 -0.34945457031E-01 -0.28007373192E+02  0.28152961767E+02  0.17770000000E+01 0.  1.
         15    1    1    2    0    0  0.11819665832E+00 -0.13536202758E+01 -0.79153561699E+01  0.82253784471E+01  0.17770000000E+01 0. -1.
</event>
<event>
 6    1  0.3691007E-002  0.4654425E+02  0.7546771E-02  0.1313544E+00
        -11   -1    0    0    0    0  0.00000000000E+00  0.00000000000E+00  0.45600000000E+02  0.45600000000E+02  0.00000000000E+00 0.  1.
         11   -1    0    0    0    0 -0.00000000000E+00 -0.00000000000E+00 -0.45600000000E+02  0.45600000000E+02  0.00000000000E+00 0.  1.
        -11    1    1    2    0    0  0.14123986604E+01  0.67639547043E+00  0.96886531760E+01  0.98143966281E+01  0.00000000000E+00 0.  1.
         11    1    1    2    0    0 -0.53342446715E+01 -0.63461450707E+01 -0.43879474243E+02  0.44655749722E+02  0.00000000000E+00 0.  1.
        -15    1    1    2    0    0  0.35031426150E+01  0.43660231101E+01  0.58124813507E+01  0.82629797550E+01  0.17770000000E+01 0. -1.
         15    1    1    2    0    0  0.41870339616E+00  0.13037264901E+01  0.28378339716E+02  0.28466873894E+02  0.17770000000E+01 0.  1.
</event>
<event>
 6    1  0.3691007E-002  0.4165023E+02  0.7546771E-02  0.1338648E+00
        -11   -1    0    0    0    0  0.00000000000E+00  0.00000000000E+00  0.45600000000E+02  0.45600000000E+02  0.00000000000E+00 0. -1.
         11   -1    0    0    0    0 -0.00000000000E+00 -0.00000000000E+00 -0.45600000000E+02  0.45600000000E+02  0.00000000000E+00 0.  1.
        -11    1    1    2    0    0  0.27227067320E+01 -0.23237016201E+00  0.40881043022E+02  0.40972268749E+02  0.00000000000E+00 0. -1.
         11    1    1    2    0    0  0.17808600630E+01 -0.10330965096E+01 -0.42423771753E+02  0.42473699635E+02  0.00000000000E+00 0.  1.
        -15    1    1    2    0    0 -0.46311142291E+01 -0.32345338362E-01 -0.16892727205E+00  0.49633185115E+01  0.17770000000E+01 0.  1.
         15    1    1    2    0    0  0.12754743397E+00  0.12978120100E+01  0.17116560026E+01  0.27907131047E+01  0.17770000000E+01 0. -1.
</event>
<event>
 6    1  0.3691007E-002  0.4712451E+02  0.7546771E-02  0.1310804E+00
        -11   -1    0    0    0    0  0.00000000000E+00  0.00000000000E+00  0.45600000000E+02  0.45600000000E+02  0.00000000000E+00 0. -1.
         11   -1    0    0    0    0 -0.00000000000E+00 -0.00000000000E+00 -0.45600000000E+02  0.45600000000E+02  0.00000000000E+00 0. -1.
        -11    1    1    2    0    0  0.90237295529E+00  0.15257499463E+01  0.44039827109E+02  0.44075487084E+02  0.00000000000E+00 0. -1.
         11    1    1    2    0    0  0.10331254344E+00 -0.14189499696E+01 -0.32954665850E+02  0.32985361811E+02  0.00000000000E+00 0. -1.
        -15    1    1    2    0    0 -0.72549042079E+00 -0.84910688893E+00  0.68609106153E+00  0.22081143096E+01  0.17770000000E+01 0. -1.
         15    1    1    2    0    0 -0.28019507794E+00  0.74230691215E+00 -0.11771252321E+02  0.11931036796E+02  0.17770000000E+01 0. -1.
</event>
<event>
 6    1  0.3691007E-002  0.5100454E+02  0.7546771E-02  0.1293578E+00
        -11   -1    0    0    0    0  0.00000000000E+00  0.00000000000E+00  0.45600000000E+02  0.45600000000E+02  0.00000000000E+00 0. -1.
         11   -1    0    0    0    0 -0.00000000000E+00 -0.00000000000E+00 -0.45600000000E+02  0.45600000000E+02  0.00000000000E+00 0. -1.
        -11    1    1    2    0    0  0.38282163264E+01 -0.47940932055E+01  0.39724509365E+02  0.40195462607E+02  0.00000000000E+00 0. -1.
         11    1    1    2    0    0  0.51926030160E+01 -0.41944787711E+01 -0.18996967354E+02  0.20135579129E+02  0.00000000000E+00 0. -1.
        -15    1    1    2    0    0 -0.37779948248E+01  0.48354657247E+01 -0.22773322108E+02  0.23652418534E+02  0.17770000000E+01 0. -1.
         15    1    1    2    0    0 -0.52428245176E+01  0.41531062520E+01  0.20457800967E+01  0.72165397294E+01  0.17770000000E+01 0. -1.
</event>
<event>
 6    1  0.3691007E-002  0.5018374E+02  0.7546771E-02  0.1297072E+00
        -11   -1    0    0    0    0  0.00000000000E+00  0.00000000000E+00  0.45600000000E+02  0.45600000000E+02  0.00000000000E+00 0.  1.
         11   -1    0    0    0    0 -0.00000000000E+00 -0.00000000000E+00 -0.45600000000E+02  0.45600000000E+02  0.00000000000E+00 0.  1.
        -11    1    1    2    0    0 -0.91487791036E+00  0.62781938099E+00  0.39324532154E+02  0.39340182866E+02  0.00000000000E+00 0.  1.
         11    1    1    2    0    0 -0.68843762743E-01 -0.73326747157E+00 -0.41009647479E+02  0.41016260276E+02  0.00000000000E+00 0.  1.
        -15    1    1    2    0    0  0.21988940555E+01  0.38519533497E+00  0.56464304777E+01  0.63264062985E+01  0.17770000000E+01 0.  1.
         15    1    1    2    0    0 -0.12151723824E+01 -0.27974724439E+00 -0.39613151531E+01  0.45171505601E+01  0.17770000000E+01 0. -1.
</event>
<event>
 6    1  0.3691007E-002  0.4292147E+02  0.7546771E-02  0.1331758E+00
        -11   -1    0    0    0    0  0.00000000000E+00  0.00000000000E+00  0.45600000000E+02  0.45600000000E+02  0.00000000000E+00 0. -1.
         11   -1    0    0    0    0 -0.00000000000E+00 -0.00000000000E+00 -0.45600000000E+02  0.45600000000E+02  0.00000000000E+00 0.  1.
        -11    1    1    2    0    0 -0.47449725968E+00 -0.43418065567E+00  0.66574425993E+01  0.66884379682E+01  0.00000000000E+00 0. -1.
         11    1    1    2    0    0  0.13073645469E+01  0.52284716183E+00 -0.44704896707E+02  0.44727065194E+02  0.00000000000E+00 0.  1.
        -15    1    1    2    0    0 -0.54606855463E+01 -0.15565346039E+01  0.14443133673E+02  0.15620618615E+02  0.17770000000E+01 0.  1.
         15    1    1    2    0    0  0.46278182591E+01  0.14678680977E+01  0.23604320435E+02  0.24163878223E+02  0.17770000000E+01 0. -1.
</event>
<event>
 6    1  0.3691007E-002  0.4799420E+02  0.7546771E-02  0.1306781E+00
        -11   -1    0    0    0    0  0.00000000000E+00  0.00000000000E+00  0.45600000000E+02  0.45600000000E+02  0.00000000000E+00 0.  1.
         11   -1    0    0    0    0 -0.00000000000E+00 -0.00000000000E+00 -0.45600000000E+02  0.45600000000E+02  0.00000000000E+00 0.  1.
        -11    1    1    2    0    0 -0.69089966901E+00 -0.21698614127E+01  0.30658998823E+02  0.30743452144E+02  0.00000000000E+00 0.  1.
         11    1    1    2    0    0 -0.19439985584E+01  0.80985234671E+00 -0.43154441398E+02  0.43205795949E+02  0.00000000000E+00 0.  1.
        -15    1    1    2    0    0 -0.13244314714E+00 -0.18077380910E+01  0.12427423508E+02  0.12684007341E+02  0.17770000000E+01 0.  1.
         15    1    1    2    0    0  0.27673413746E+01  0.31677471570E+01  0.68019068136E-01  0.45667445657E+01  0.17770000000E+01 0. -1.
</event>
<event>
 6    1  0.3691007E-002  0.4577320E+02  0.7546771E-02  0.1317257E+00
        -11   -1    0    0    0    0  0.00000000000E+00  0.00000000000E+00  0.45600000000E+02  0.45600000000E+02  0.00000000000E+00 0.  1.
         11   -1    0    0    0    0 -0.00000000000E+00 -0.00000000000E+00 -0.45600000000E+02  0.45600000000E+02  0.00000000000E+00 0. -1.
        -11    1    1    2    0    0  0.16373330761E+01  0.71541371652E+00  0.45391641324E+02  0.45426795820E+02  0.00000000000E+00 0.  1.
         11    1    1    2    0    0 -0.13779946702E+00 -0.60231348697E+00 -0.44227039461E+01  0.44656556545E+01  0.00000000000E+00 0. -1.
        -15    1    1    2    0    0 -0.25271991948E+01  0.19359609518E+00 -0.20298658876E+02  0.20533326481E+02  0.17770000000E+01 0.  1.
         15    1    1    2    0    0  0.10276655857E+01 -0.30669632473E+00 -0.20670278502E+02  0.20774222044E+02  0.17770000000E+01 0. -1.
</event>
<event>
 6    1  0.3691007E-002  0.4778124E+02  0.7546771E-02  0.1307757E+00
        -11   -1    0    0    0    0  0.00000000000E+00  0.00000000000E+00  0.45600000000E+02  0.45600000000E+02  0.00000000000E+00 0. -1.
         11   -1    0    0    0    0 -0.00000000000E+00 -0.00000000000E+00 -0.45600000000E+02  0.45600000000E+02  0.00000000000E+00 0. -1.
        -11    1    1    2    0    0  0.39504091390E+00 -0.40235746173E+00  0.19714089192E+02  0.19722151544E+02  0.00000000000E+00 0. -1.
         11    1    1    2    0    0 -0.65672093309E+01  0.13947193381E+01 -0.42896563265E+02  0.43418758854E+02  0.00000000000E+00 0. -1.
        -15    1    1    2    0    0  0.54802041176E+00 -0.25431052775E+01 -0.85142336149E+00  0.32634891703E+01  0.17770000000E+01 0.  1.
         15    1    1    2    0    0  0.56241480052E+01  0.15507434011E+01  0.24033897435E+02  0.24795600432E+02  0.17770000000E+01 0. -1.
</event>
<event>
 6    1  0.3691007E-002  0.4752106E+02  0.7546771E-02  0.1308957E+00
        -11   -1    0    0    0    0  0.00000000000E+00  0.00000000000E+00  0.45600000000E+02  0.45600000000E+02  0.00000000000E+00 0. -1.
         11   -1    0    0    0    0 -0.00000000000E+00 -0.00000000000E+00 -0.45600000000E+02  0.45600000000E+02  0.00000000000E+00 0. -1.
        -11    1    1    2    0    0  0.17139343648E-01  0.38483575921E+01  0.43509073714E+02  0.43678938235E+02  0.00000000000E+00 0. -1.
         11    1    1    2    0    0  0.55378694739E+00 -0.17983709354E+00 -0.39311121907E+02  0.39315433699E+02  0.00000000000E+00 0. -1.
        -15    1    1    2    0    0  0.58910741160E+00  0.78747657849E+00 -0.18199424434E+01  0.27271021986E+01  0.17770000000E+01 0. -1.
         15    1    1    2    0    0 -0.11600337026E+01 -0.44559970770E+01 -0.23780093636E+01  0.54785258670E+01  0.17770000000E+01 0. -1.
</event>
<event>
 6    1  0.3691007E-002  0.4636585E+02  0.7546771E-02  0.1314395E+00
        -11   -1    0    0    0    0  0.00000000000E+00  0.00000000000E+00  0.45600000000E+02  0.45600000000E+02  0.00000000000E+00 0.  1.
         11   -1    0    0    0    0 -0.00000000000E+00 -0.00000000000E+00 -0.45600000000E+02  0.45600000000E+02  0.00000000000E+00 0. -1.
        -11    1    1    2    0    0  0.36505497665E+00  0.77183981508E+00  0.37751378188E+02  0.37761032255E+02  0.00000000000E+00 0.  1.
         11    1    1    2    0    0 -0.48581253296E+00  0.43932418158E+00 -0.44829361078E+02  0.44834145851E+02  0.00000000000E+00 0. -1.
        -15    1    1    2    0    0  0.12532157092E+01  0.13028370712E+00  0.20535755245E+01  0.29937309319E+01  0.17770000000E+01 0.  1.
         15    1    1    2    0    0 -0.11324581529E+01 -0.13414477038E+01  0.50244073653E+01  0.56110909619E+01  0.17770000000E+01 0.  1.
</event>
<event>
 6    1  0.3691007E-002  0.4583169E+02  0.7546771E-02  0.1316972E+00
        -11   -1    0    0    0    0  0.00000000000E+00  0.00000000000E+00  0.45600000000E+02  0.45600000000E+02  0.00000000000E+00 0.  1.
         11   -1    0    0    0    0 -0.00000000000E+00 -0.00000000000E+00 -0.45600000000E+02  0.45600000000E+02  0.00000000000E+00 0. -1.
        -11    1    1    2    0    0  0.49958731365E+00  0.51252457662E-01  0.15236326177E+02  0.15244600673E+02  0.00000000000E+00 0.  1.
         11    1    1    2    0    0  0.12301833966E+01  0.27800451509E+01 -0.45266339664E+02  0.45368309521E+02  0.00000000000E+00 0. -1.
        -15    1    1    2    0    0  0.41631051134E+00 -0.22088299752E+01  0.17733961446E+02  0.17963946166E+02  0.17770000000E+01 0. -1.
         15    1    1    2    0    0 -0.21460812216E+01 -0.62246763337E+00  0.12296052041E+02  0.12623143640E+02  0.17770000000E+01 0.  1.
</event>
<event>
 6    1  0.3691007E-002  0.2925388E+02  0.7546771E-02  0.1425468E+00
        -11   -1    0    0    0    0  0.00000000000E+00  0.00000000000E+00  0.45600000000E+02  0.45600000000E+02  0.00000000000E+00 0.  1.
         11   -1    0    0    0    0 -0.00000000000E+00 -0.00000000000E+00 -0.45600000000E+02  0.45600000000E+02  0.00000000000E+00 0. -1.
        -11    1    1    2    0    0  0.22895860548E+01  0.30444862964E+00  0.20573759325E+02  0.20703006207E+02  0.00000000000E+00 0.  1.
         11    1    1    2    0    0  0.15087853217E+01  0.13293194257E+01 -0.34635970973E+02  0.34694293602E+02  0.00000000000E+00 0. -1.
        -15    1    1    2    0    0 -0.16020376266E+01 -0.29581663915E+01 -0.10435328147E+02  0.11107253283E+02  0.17770000000E+01 0.  1.
         15    1    1    2    0    0 -0.21963337499E+01  0.13243983362E+01  0.24497539796E+02  0.24695446907E+02  0.17770000000E+01 0.  1.
</event>
<event>
 6    1  0.3691007E-002  0.4618168E+02  0.7546771E-02  0.1315279E+00
        -11   -1    0    0    0    0  0.00000000000E+00  0.00000000000E+00  0.45600000000E+02  0.45600000000E+02  0.00000000000E+00 0. -1.
         11   -1    0    0    0    0 -0.00000000000E+00 -0.00000000000E+00 -0.45600000000E+02  0.45600000000E+02  0.00000000000E+00 0.  1.
        -11    1    1    2    0    0 -0.25134944107E+01 -0.14009938968E+00  0.44947880069E+02  0.45018320767E+02  0.00000000000E+00 0. -1.
         11    1    1    2    0    0 -0.49521069839E+00 -0.13696728964E+01 -0.32853758954E+02  0.32886026134E+02  0.00000000000E+00 0.  1.
        -15    1    1    2    0    0  0.25977049280E+01  0.44485227023E+00 -0.90386212261E+01  0.95812508111E+01  0.17770000000E+01 0. -1.
         15    1    1    2    0    0  0.41100018107E+00  0.10649200158E+01 -0.30554998882E+01  0.37144022878E+01  0.17770000000E+01 0.  1.
</event>
<event>
 6    1  0.3691007E-002  0.4846302E+02  0.7546771E-02  0.1304652E+00
        -11   -1    0    0    0    0  0.00000000000E+00  0.00000000000E+00  0.45600000000E+02  0.45600000000E+02  0.00000000000E+00 0. -1.
         11   -1    0    0    0    0 -0.00000000000E+00 -0.00000000000E+00 -0.45600000000E+02  0.45600000000E+02  0.00000000000E+00 0. -1.
        -11    1    1    2    0    0  0.45986182250E+00 -0.28215876586E+01  0.42641252078E+02  0.42736977065E+02  0.00000000000E+00 0. -1.
         11    1    1    2    0    0 -0.33407986047E+00  0.59529266942E+00 -0.33294207977E+02  0.33301205196E+02  0.00000000000E+00 0. -1.
        -15    1    1    2    0    0  0.18150951056E+01  0.73844175052E+00  0.20651971048E+01  0.33559848842E+01  0.17770000000E+01 0. -1.
         15    1    1    2    0    0 -0.19408770676E+01  0.14878532387E+01 -0.11412241206E+02  0.11805832855E+02  0.17770000000E+01 0.  1.
</event>
<event>
 6    1  0.3691007E-002  0.2875439E+02  0.7546771E-02  0.1429997E+00
        -11   -1    0    0    0    0  0.00000000000E+00  0.00000000000E+00  0.45600000000E+02  0.45600000000E+02  0.00000000000E+00 0. -1.
         11   -1    0    0    0    0 -0.00000000000E+00 -0.00000000000E+00 -0.45600000000E+02  0.45600000000E+02  0.00000000000E+00 0.  1.
        -11    1    1    2    0    0  0.21701825664E+01 -0.94441019485E+00  0.13883853919E+02  0.14084140110E+02  0.00000000000E+00 0. -1.
         11    1    1    2    0    0 -0.46396370189E+01 -0.96785822616E+01 -0.15151948538E+02  0.18568326008E+02  0.00000000000E+00 0.  1.
        -15    1    1    2    0    0  0.92797225200E+01  0.29798164744E+02 -0.12764337153E+02  0.33765809692E+02  0.17770000000E+01 0.  1.
         15    1    1    2    0    0 -0.68102680675E+01 -0.19175172288E+02  0.14032431772E+02  0.24781724190E+02  0.17770000000E+01 0. -1.
</event>
<event>
 6    1  0.3691007E-002  0.4910138E+02  0.7546771E-02  0.1301799E+00
        -11   -1    0    0    0    0  0.00000000000E+00  0.00000000000E+00  0.45600000000E+02  0.45600000000E+02  0.00000000000E+00 0. -1.
         11   -1    0    0    0    0 -0.00000000000E+00 -0.00000000000E+00 -0.45600000000E+02  0.45600000000E+02  0.00000000000E+00 0. -1.
        -11    1    1    2    0    0  0.14510252938E+00  0.55958859755E+00  0.42094647714E+02  0.42098617084E+02  0.00000000000E+00 0. -1.
         11    1    1    2    0    0  0.55805829244E+00  0.10632562048E+01 -0.36704930238E+02  0.36724567344E+02  0.00000000000E+00 0. -1.
        -15    1    1    2    0    0  0.34244646077E+01 -0.15399464439E+01 -0.65304214507E+01  0.77396722297E+01  0.17770000000E+01 0. -1.
         15    1    1    2    0    0 -0.41276254295E+01 -0.82898358430E-01  0.11407039744E+01  0.46371433428E+01  0.17770000000E+01 0.  1.
</event>
<event>
 6    1  0.3691007E-002  0.4965963E+02  0.7546771E-02  0.1299344E+00
        -11   -1    0    0    0    0  0.00000000000E+00  0.00000000000E+00  0.45600000000E+02  0.45600000000E+02  0.00000000000E+00 0. -1.
         11   -1    0    0    0    0 -0.00000000000E+00 -0.00000000000E+00 -0.45600000000E+02  0.45600000000E+02  0.00000000000E+00 0.  1.
        -11    1    1    2    0    0 -0.37674059925E+00 -0.64462768541E+00  0.41533658383E+02  0.41540369005E+02  0.00000000000E+00 0. -1.
         11    1    1    2    0    0 -0.34610240950E+01  0.37630127788E+01 -0.36732245174E+02  0.37086342345E+02  0.00000000000E+00 0.  1.
        -15    1    1    2    0    0 -0.22528483732E+01 -0.32438678162E+01  0.42598232363E+00  0.43516886541E+01  0.17770000000E+01 0. -1.
         15    1    1    2    0    0  0.60906130675E+01  0.12548272276E+00 -0.52273955325E+01  0.82215999966E+01  0.17770000000E+01 0.  1.
</event>
<event>
 6    1  0.3691007E-002  0.4586172E+02  0.7546771E-02  0.1316826E+00
        -11   -1    0    0    0    0  0.00000000000E+00  0.00000000000E+00  0.45600000000E+02  0.45600000000E+02  0.00000000000E+00 0.  1.
         11   -1    0    0    0    0 -0.00000000000E+00 -0.00000000000E+00 -0.45600000000E+02  0.45600000000E+02  0.00000000000E+00 0.  1.
        -11    1    1    2    0    0 -0.41337770273E+00 -0.12053903560E+01  0.19911938732E+02  0.19952672780E+02  0.00000000000E+00 0.  1.
         11    1    1    2    0    0 -0.12838465383E+01  0.18485916683E+01 -0.45282383018E+02  0.45338281451E+02  0.00000000000E+00 0.  1.
        -15    1    1    2    0    0  0.11686191941E+01 -0.19928834662E+01  0.12444593556E+02  0.12781349424E+02  0.17770000000E+01 0. -1.
         15    1    1    2    0    0  0.52860504686E+00  0.13496821539E+01  0.12925850730E+02  0.13127696345E+02  0.17770000000E+01 0.  1.
</event>
<event>
 6    1  0.3691007E-002  0.4236354E+02  0.7546771E-02  0.1334748E+00
        -11   -1    0    0    0    0  0.00000000000E+00  0.00000000000E+00  0.45600000000E+02  0.45600000000E+02  0.00000000000E+00 0.  1.
         11   -1    0    0    0    0 -0.00000000000E+00 -0.00000000000E+00 -0.45600000000E+02  0.45600000000E+02  0.00000000000E+00 0.  1.
        -11    1    1    2    0    0 -0.27077351522E+01 -0.76374174692E+00  0.42694659529E+02  0.42787253749E+02  0.00000000000E+00 0.  1.
         11    1    1    2    0    0  0.52043131829E+01 -0.38786917038E-01 -0.41662869780E+02  0.41986677630E+02  0.00000000000E+00 0.  1.
        -15    1    1    2    0    0 -0.30859791506E+01  0.11111791313E+01  0.77045507526E+00  0.38091096601E+01  0.17770000000E+01 0.  1.
         15    1    1    2    0    0  0.58940111994E+00 -0.30865046733E+00 -0.18022448243E+01  0.26169589599E+01  0.17770000000E+01 0. -1.
</event>
<event>
 6    1  0.3691007E-002  0.4599964E+02  0.7546771E-02  0.1316158E+00
        -11   -1    0    0    0    0  0.00000000000E+00  0.00000000000E+00  0.45600000000E+02  0.45600000000E+02  0.00000000000E+00 0.  1.
         11   -1    0    0    0    0 -0.00000000000E+00 -0.00000000000E+00 -0.45600000000E+02  0.45600000000E+02  0.00000000000E+00 0.  1.
        -11    1    1    2    0    0  0.16597159986E+01 -0.14235053284E+01  0.29536561738E+02  0.29617385164E+02  0.00000000000E+00 0.  1.
         11    1    1    2    0    0 -0.10469678543E+01 -0.14183870186E+01 -0.45165964013E+02  0.45200356953E+02  0.00000000000E+00 0.  1.
        -15    1    1    2    0    0 -0.77581419828E+00  0.21380445183E+01  0.76739455906E+01  0.81987982022E+01  0.17770000000E+01 0.  1.
         15    1    1    2    0    0  0.16306605400E+00  0.70384782861E+00  0.79554566842E+01  0.81834596814E+01  0.17770000000E+01 0.  1.
</event>
<event>
 6    1  0.3691007E-002  0.4579156E+02  0.7546771E-02  0.1317167E+00
        -11   -1    0    0    0    0  0.00000000000E+00  0.00000000000E+00  0.45600000000E+02  0.45600000000E+02  0.00000000000E+00 0. -1.
         11   -1    0    0    0    0 -0.00000000000E+00 -0.00000000000E+00 -0.45600000000E+02  0.45600000000E+02  0.00000000000E+00 0. -1.
        -11    1    1    2    0    0  0.68531856455E+00 -0.46273911807E+00  0.14972612663E+02  0.14995429936E+02  0.00000000000E+00 0. -1.
         11    1    1    2    0    0  0.22090245921E+01 -0.11900731397E+00 -0.45354518824E+02  0.45408438975E+02  0.00000000000E+00 0. -1.
        -15    1    1    2    0    0 -0.11145529631E+01  0.44951561589E+00  0.83669456753E+01  0.86375807684E+01  0.17770000000E+01 0.  1.
         15    1    1    2    0    0 -0.17797901936E+01  0.13223081615E+00  0.22014960486E+02  0.22158550321E+02  0.17770000000E+01 0. -1.
</event>
<event>
 6    1  0.3691007E-002  0.4762448E+02  0.7546771E-02  0.1308479E+00
        -11   -1    0    0    0    0  0.00000000000E+00  0.00000000000E+00  0.45600000000E+02  0.45600000000E+02  0.00000000000E+00 0.  1.
         11   -1    0    0    0    0 -0.00000000000E+00 -0.00000000000E+00 -0.45600000000E+02  0.45600000000E+02  0.00000000000E+00 0.  1.
        -11    1    1    2    0    0 -0.19886076396E+01  0.18633388247E+01  0.39191388201E+02  0.39286021700E+02  0.00000000000E+00 0.  1.
         11    1    1    2    0    0 -0.17077061598E+01  0.10862098031E+01 -0.43528497896E+02  0.43575523418E+02  0.00000000000E+00 0.  1.
        -15    1    1    2    0    0  0.41911745356E+01 -0.22248764805E+01  0.36348436034E+01  0.62358508932E+01  0.17770000000E+01 0.  1.
         15    1    1    2    0    0 -0.49486073622E+00 -0.72467214734E+00  0.70226609158E+00  0.21026039886E+01  0.17770000000E+01 0. -1.
</event>
<event>
 6    1  0.3691007E-002  0.3424739E+02  0.7546771E-02  0.1385352E+00
        -11   -1    0    0    0    0  0.00000000000E+00  0.00000000000E+00  0.45600000000E+02  0.45600000000E+02  0.00000000000E+00 0. -1.
         11   -1    0    0    0    0 -0.00000000000E+00 -0.00000000000E+00 -0.45600000000E+02  0.45600000000E+02  0.00000000000E+00 0. -1.
        -11    1    1    2    0    0  0.73005554152E+01 -0.98969888327E+01  0.35580769558E+02  0.37646243633E+02  0.00000000000E+00 0. -1.
         11    1    1    2    0    0  0.61124966776E+01  0.30284506736E+00 -0.24001231393E+02  0.24769203441E+02  0.00000000000E+00 0. -1.
        -15    1    1    2    0    0 -0.85744032181E+01  0.11362610166E+02 -0.16200947998E+02  0.21639263975E+02  0.17770000000E+01 0. -1.
         15    1    1    2    0    0 -0.48386488747E+01 -0.17684664011E+01  0.46214098332E+01  0.71452889508E+01  0.17770000000E+01 0.  1.
</event>
<event>
 6    1  0.4721026E-002  0.3262715E+02  0.7546771E-02  0.1397440E+00
        -11   -1    0    0    0    0  0.00000000000E+00  0.00000000000E+00  0.45600000000E+02  0.45600000000E+02  0.00000000000E+00 0.  1.
         11   -1    0    0    0    0 -0.00000000000E+00 -0.00000000000E+00 -0.45600000000E+02  0.45600000000E+02  0.00000000000E+00 0.  1.
        -11    1    1    2    0    0  0.75985697936E+00 -0.35657579590E+00  0.32178436934E+02  0.32189382293E+02  0.00000000000E+00 0.  1.
         11    1    1    2    0    0  0.34361614164E+00 -0.18800111150E+01 -0.33063369626E+02  0.33118558617E+02  0.00000000000E+00 0.  1.
        -15    1    1    2    0    0 -0.14584382528E+01  0.14193893792E+01  0.13171492864E+02  0.13445730237E+02  0.17770000000E+01 0. -1.
         15    1    1    2    0    0  0.35496513185E+00  0.81719753168E+00 -0.12286560171E+02  0.12446328852E+02  0.17770000000E+01 0.  1.
</event>
<event>
 6    1  0.3691007E-002  0.4663110E+02  0.7546771E-02  0.1313131E+00
        -11   -1    0    0    0    0  0.00000000000E+00  0.00000000000E+00  0.45600000000E+02  0.45600000000E+02  0.00000000000E+00 0. -1.
         11   -1    0    0    0    0 -0.00000000000E+00 -0.00000000000E+00 -0.45600000000E+02  0.45600000000E+02  0.00000000000E+00 0. -1.
        -11    1    1    2    0    0 -0.15161771326E+01  0.16345010179E+01  0.17624441637E+02  0.17764890365E+02  0.00000000000E+00 0. -1.
         11    1    1    2    0    0 -0.37930004721E+01 -0.14686053284E+01 -0.44382914206E+02  0.44568898659E+02  0.00000000000E+00 0. -1.
        -15    1    1    2    0    0  0.23367472285E+01  0.42510869253E+01  0.14198825415E+02  0.15109483771E+02  0.17770000000E+01 0. -1.
         15    1    1    2    0    0  0.29724303763E+01 -0.44169826147E+01  0.12559647155E+02  0.13756727206E+02  0.17770000000E+01 0.  1.
</event>
<event>
 6    1  0.7538390E-002  0.3703856E+02  0.7546771E-02  0.1366258E+00
        -11   -1    0    0    0    0  0.00000000000E+00  0.00000000000E+00  0.45600000000E+02  0.45600000000E+02  0.00000000000E+00 0. -1.
         11   -1    0    0    0    0 -0.00000000000E+00 -0.00000000000E+00 -0.45600000000E+02  0.45600000000E+02  0.00000000000E+00 0. -1.
        -11    1    1    2    0    0 -0.29313697883E+00  0.14693181111E+01  0.38060096929E+02  0.38089576044E+02  0.00000000000E+00 0. -1.
         11    1    1    2    0    0 -0.39005417428E+01  0.53084863666E+01 -0.80857164297E+01  0.10429432562E+02  0.00000000000E+00 0. -1.
        -15    1    1    2    0    0  0.20291325692E+01 -0.89128900358E+01 -0.35182509279E+02  0.36394006044E+02  0.17770000000E+01 0. -1.
         15    1    1    2    0    0  0.21645461524E+01  0.21350855582E+01  0.52081287800E+01  0.62869853488E+01  0.17770000000E+01 0.  1.
</event>
<event>
 6    1  0.3691007E-002  0.4650080E+02  0.7546771E-02  0.1313751E+00
        -11   -1    0    0    0    0  0.00000000000E+00  0.00000000000E+00  0.45600000000E+02  0.45600000000E+02  0.00000000000E+00 0. -1.
         11   -1    0    0    0    0 -0.00000000000E+00 -0.00000000000E+00 -0.45600000000E+02  0.45600000000E+02  0.00000000000E+00 0. -1.
        -11    1    1    2    0    0  0.10161955581E+01  0.78633845315E+00  0.44680725242E+02  0.44699196746E+02  0.00000000000E+00 0. -1.
         11    1    1    2    0    0  0.63457463570E+00 -0.22519860223E+00 -0.34545345649E+02  0.34551907405E+02  0.00000000000E+00 0. -1.
        -15    1    1    2    0    0  0.69920764718E+00 -0.98696081546E+00 -0.80042409864E+01  0.82878577301E+01  0.17770000000E+01 0. -1.
         15    1    1    2    0    0 -0.23499778409E+01  0.42582096454E+00 -0.21311386068E+01  0.36610381189E+01  0.17770000000E+01 0.  1.
</event>
<event>
 6    1  0.3691007E-002  0.4613480E+02  0.7546771E-02  0.1315505E+00
        -11   -1    0    0    0    0  0.00000000000E+00  0.00000000000E+00  0.45600000000E+02  0.45600000000E+02  0.00000000000E+00 0. -1.
         11   -1    0    0    0    0 -0.00000000000E+00 -0.00000000000E+00 -0.45600000000E+02  0.45600000000E+02  0.00000000000E+00 0. -1.
        -11    1    1    2    0    0 -0.16553796607E+00 -0.11381206356E+01  0.45050526334E+02  0.45065204364E+02  0.00000000000E+00 0. -1.
         11    1    1    2    0    0 -0.19878641650E+00  0.93630298984E+00 -0.26765182315E+02  0.26782291980E+02  0.00000000000E+00 0. -1.
        -15    1    1    2    0    0 -0.16342315405E+01  0.79160312886E+00 -0.14255836212E+02  0.14480467650E+02  0.17770000000E+01 0. -1.
         15    1    1    2    0    0  0.19985559230E+01 -0.58978548309E+00 -0.40295078061E+01  0.48720360070E+01  0.17770000000E+01 0. -1.
</event>
<event>
 6    1  0.3691007E-002  0.5058974E+02  0.7546771E-02  0.1295334E+00
        -11   -1    0    0    0    0  0.00000000000E+00  0.00000000000E+00  0.45600000000E+02  0.45600000000E+02  0.00000000000E+00 0. -1.
         11   -1    0    0    0    0 -0.00000000000E+00 -0.00000000000E+00 -0.45600000000E+02  0.45600000000E+02  0.00000000000E+00 0.  1.
        -11    1    1    2    0    0 -0.20798133482E+01 -0.22974922807E+01  0.40491842924E+02  0.40610262714E+02  0.00000000000E+00 0. -1.
         11    1    1    2    0    0 -0.38278834712E+00  0.44427765662E+00 -0.36632262378E+02  0.36636956158E+02  0.00000000000E+00 0.  1.
        -15    1    1    2    0    0  0.15977800471E+01 -0.35435291803E+01  0.28356471180E+01  0.51291445396E+01  0.17770000000E+01 0. -1.
         15    1    1    2    0    0  0.86482164817E+00  0.53967438043E+01 -0.66952276636E+01  0.88236365881E+01  0.17770000000E+01 0.  1.
</event>
<event>
 6    1  0.3691007E-002  0.4656232E+02  0.7546771E-02  0.1313458E+00
        -11   -1    0    0    0    0  0.00000000000E+00  0.00000000000E+00  0.45600000000E+02  0.45600000000E+02  0.00000000000E+00 0. -1.
         11   -1    0    0    0    0 -0.00000000000E+00 -0.00000000000E+00 -0.45600000000E+02  0.45600000000E+02  0.00000000000E+00 0.  1.
        -11    1    1    2    0    0  0.11435416952E+01 -0.15709054630E+01  0.44595369463E+02  0.44637679253E+02  0.00000000000E+00 0. -1.
         11    1    1    2    0    0  0.38889106872E+00 -0.52450985571E+00 -0.36322834869E+02  0.36328703249E+02  0.00000000000E+00 0.  1.
        -15    1    1    2    0    0 -0.72254978477E-01 -0.86033795342E+00 -0.45153491766E+01  0.49286417360E+01  0.17770000000E+01 0.  1.
         15    1    1    2    0    0 -0.14601777854E+01  0.29557532721E+01 -0.37571854170E+01  0.53049757613E+01  0.17770000000E+01 0.  1.
</event>
<event>
 6    1  0.3691007E-002  0.4843322E+02  0.7546771E-02  0.1304787E+00
        -11   -1    0    0    0    0  0.00000000000E+00  0.00000000000E+00  0.45600000000E+02  0.45600000000E+02  0.00000000000E+00 0.  1.
         11   -1    0    0    0    0 -0.00000000000E+00 -0.00000000000E+00 -0.45600000000E+02  0.45600000000E+02  0.00000000000E+00 0. -1.
        -11    1    1    2    0    0 -0.46279261660E+00  0.36355775344E+00  0.42762734622E+02  0.42766784115E+02  0.00000000000E+00 0.  1.
         11    1    1    2    0    0 -0.11184487628E+01  0.71601726306E+00 -0.40112107377E+02  0.40134084848E+02  0.00000000000E+00 0. -1.
        -15    1    1    2    0    0 -0.44214531782E+00  0.14813582505E+01 -0.37459148848E+01  0.44248753737E+01  0.17770000000E+01 0. -1.
         15    1    1    2    0    0  0.20233866973E+01 -0.25609332670E+01  0.10952876404E+01  0.38742556627E+01  0.17770000000E+01 0. -1.
</event>
<event>
 6    1  0.3691007E-002  0.4669057E+02  0.7546771E-02  0.1312848E+00
        -11   -1    0    0    0    0  0.00000000000E+00  0.00000000000E+00  0.45600000000E+02  0.45600000000E+02  0.00000000000E+00 0.  1.
         11   -1    0    0    0    0 -0.00000000000E+00 -0.00000000000E+00 -0.45600000000E+02  0.45600000000E+02  0.00000000000E+00 0. -1.
        -11    1    1    2    0    0  0.25594653729E-01 -0.11583858535E+01  0.44494349008E+02  0.44509432781E+02  0.00000000000E+00 0.  1.
         11    1    1    2    0    0  0.73340995835E+00  0.78488084696E+00 -0.21572411546E+02  0.21599140447E+02  0.00000000000E+00 0. -1.
        -15    1    1    2    0    0 -0.12053429027E+01 -0.34155454225E+01 -0.18699066125E+02  0.19129338854E+02  0.17770000000E+01 0. -1.
         15    1    1    2    0    0  0.44633829062E+00  0.37890504290E+01 -0.42228713358E+01  0.59620879180E+01  0.17770000000E+01 0. -1.
</event>
<event>
 6    1  0.3691007E-002  0.4022165E+02  0.7546771E-02  0.1346740E+00
        -11   -1    0    0    0    0  0.00000000000E+00  0.00000000000E+00  0.45600000000E+02  0.45600000000E+02  0.00000000000E+00 0.  1.
         11   -1    0    0    0    0 -0.00000000000E+00 -0.00000000000E+00 -0.45600000000E+02  0.45600000000E+02  0.00000000000E+00 0.  1.
        -11    1    1    2    0    0  0.12476982822E+01  0.95605199906E+00  0.39406237034E+02  0.39437574768E+02  0.00000000000E+00 0.  1.
         11    1    1    2    0    0  0.21434809570E+01 -0.13883428842E+01 -0.41014973554E+02  0.41094404269E+02  0.00000000000E+00 0.  1.
        -15    1    1    2    0    0 -0.33064973670E+01  0.16951980867E+01  0.50973256201E+01  0.65534020835E+01  0.17770000000E+01 0.  1.
         15    1    1    2    0    0 -0.84681872268E-01 -0.12629072016E+01 -0.34885890997E+01  0.41146188798E+01  0.17770000000E+01 0. -1.
</event>
<event>
 6    1  0.3691007E-002  0.4708580E+02  0.7546771E-02  0.1310985E+00
        -11   -1    0    0    0    0  0.00000000000E+00  0.00000000000E+00  0.45600000000E+02  0.45600000000E+02  0.00000000000E+00 0. -1.
         11   -1    0    0    0    0 -0.00000000000E+00 -0.00000000000E+00 -0.45600000000E+02  0.45600000000E+02  0.00000000000E+00 0. -1.
        -11    1    1    2    0    0 -0.71720969521E+00  0.41524837489E+00  0.44106416802E+02  0.44114202068E+02  0.00000000000E+00 0. -1.
         11    1    1    2    0    0 -0.77620470650E+00 -0.63362522861E+00 -0.38212643551E+02  0.38225777976E+02  0.00000000000E+00 0. -1.
        -15    1    1    2    0    0 -0.87375926416E+00  0.54264541327E+00 -0.54821869258E+01  0.58540602820E+01  0.17770000000E+01 0.  1.
         15    1    1    2    0    0  0.23671736659E+01 -0.32426855955E+00 -0.41158632487E+00  0.30059596747E+01  0.17770000000E+01 0.  1.
</event>
<event>
 6    1  0.3691007E-002  0.4682676E+02  0.7546771E-02  0.1312204E+00
        -11   -1    0    0    0    0  0.00000000000E+00  0.00000000000E+00  0.45600000000E+02  0.45600000000E+02  0.00000000000E+00 0. -1.
         11   -1    0    0    0    0 -0.00000000000E+00 -0.00000000000E+00 -0.45600000000E+02  0.45600000000E+02  0.00000000000E+00 0.  1.
        -11    1    1    2    0    0 -0.58962063767E+00 -0.16074398963E+01  0.44340197915E+02  0.44373242688E+02  0.00000000000E+00 0. -1.
         11    1    1    2    0    0  0.16496399932E+01  0.29847133985E+00 -0.38531338881E+02  0.38567790619E+02  0.00000000000E+00 0.  1.
        -15    1    1    2    0    0 -0.57006478521E+00 -0.13288454360E+01 -0.10645410962E+01  0.25262186758E+01  0.17770000000E+01 0. -1.
         15    1    1    2    0    0 -0.48995457029E+00  0.26378139924E+01 -0.47443179377E+01  0.57327480176E+01  0.17770000000E+01 0. -1.
</event>
<event>
 6    1  0.3691007E-002  0.4628425E+02  0.7546771E-02  0.1314786E+00
        -11   -1    0    0    0    0  0.00000000000E+00  0.00000000000E+00  0.45600000000E+02  0.45600000000E+02  0.00000000000E+00 0. -1.
         11   -1    0    0    0    0 -0.00000000000E+00 -0.00000000000E+00 -0.45600000000E+02  0.45600000000E+02  0.00000000000E+00 0. -1.
        -11    1    1    2    0    0 -0.49119702206E+00  0.23148796220E+00  0.29724468485E+02  0.29729427978E+02  0.00000000000E+00 0. -1.
         11    1    1    2    0    0  0.98668698241E+00 -0.22003258378E+00 -0.44904375641E+02  0.44915753553E+02  0.00000000000E+00 0. -1.
        -15    1    1    2    0    0 -0.24052407591E+01  0.11476823297E+01  0.46614470399E+01  0.56558973952E+01  0.17770000000E+01 0. -1.
         15    1    1    2    0    0  0.19097507987E+01 -0.11591377081E+01  0.10518460116E+02  0.10898921073E+02  0.17770000000E+01 0. -1.
</event>
<event>
 6    1  0.3691007E-002  0.4665452E+02  0.7546771E-02  0.1313019E+00
        -11   -1    0    0    0    0  0.00000000000E+00  0.00000000000E+00  0.45600000000E+02  0.45600000000E+02  0.00000000000E+00 0. -1.
         11   -1    0    0    0    0 -0.00000000000E+00 -0.00000000000E+00 -0.45600000000E+02  0.45600000000E+02  0.00000000000E+00 0.  1.
        -11    1    1    2    0    0  0.18729025527E+01  0.28095757003E-01  0.33013388189E+02  0.33066483832E+02  0.00000000000E+00 0. -1.
         11    1    1    2    0    0 -0.89180683661E+00 -0.44898470320E+00 -0.44534284527E+02  0.44545475696E+02  0.00000000000E+00 0.  1.
        -15    1    1    2    0    0 -0.35080862531E+01 -0.10369734648E+00  0.76992663457E+01  0.86460310872E+01  0.17770000000E+01 0. -1.
         15    1    1    2    0    0  0.25269905371E+01  0.52458629268E+00  0.38216299924E+01  0.49420093840E+01  0.17770000000E+01 0. -1.
</event>
<event>
 6    1  0.3691007E-002  0.4855339E+02  0.7546771E-02  0.1304245E+00
        -11   -1    0    0    0    0  0.00000000000E+00  0.00000000000E+00  0.45600000000E+02  0.45600000000E+02  0.00000000000E+00 0. -1.
         11   -1    0    0    0    0 -0.00000000000E+00 -0.00000000000E+00 -0.45600000000E+02  0.45600000000E+02  0.00000000000E+00 0. -1.
        -11    1    1    2    0    0 -0.91564916378E-01  0.95257145315E+00  0.40205127547E+02  0.40216514737E+02  0.00000000000E+00 0. -1.
         11    1    1    2    0    0 -0.10795210685E+01  0.48890172630E+00 -0.42630145504E+02  0.42646614125E+02  0.00000000000E+00 0. -1.
        -15    1    1    2    0    0  0.15379977421E+01  0.18725478339E+01 -0.10702511355E+01  0.31898336850E+01  0.17770000000E+01 0. -1.
         15    1    1    2    0    0 -0.36691175714E+00 -0.33140210134E+01  0.34952690920E+01  0.51470374528E+01  0.17770000000E+01 0. -1.
</event>
<event>
 6    1  0.3691007E-002  0.4776130E+02  0.7546771E-02  0.1307848E+00
        -11   -1    0    0    0    0  0.00000000000E+00  0.00000000000E+00  0.45600000000E+02  0.45600000000E+02  0.00000000000E+00 0. -1.
         11   -1    0    0    0    0 -0.00000000000E+00 -0.00000000000E+00 -0.45600000000E+02  0.45600000000E+02  0.00000000000E+00 0. -1.
        -11    1    1    2    0    0 -0.56701811180E+01  0.24133662523E+01  0.42999362443E+02  0.43438697737E+02  0.00000000000E+00 0. -1.
         11    1    1    2    0    0  0.54215830153E+00  0.30062209842E+00 -0.37461159856E+02  0.37466288941E+02  0.00000000000E+00 0. -1.
        -15    1    1    2    0    0  0.59992962663E+01 -0.21567581087E+01 -0.43599800476E+01  0.79252959722E+01  0.17770000000E+01 0.  1.
         15    1    1    2    0    0 -0.87127344978E+00 -0.55723024198E+00 -0.11782225390E+01  0.23697173499E+01  0.17770000000E+01 0. -1.
</event>
<event>
 6    1  0.3691007E-002  0.4625766E+02  0.7546771E-02  0.1314914E+00
        -11   -1    0    0    0    0  0.00000000000E+00  0.00000000000E+00  0.45600000000E+02  0.45600000000E+02  0.00000000000E+00 0.  1.
         11   -1    0    0    0    0 -0.00000000000E+00 -0.00000000000E+00 -0.45600000000E+02  0.45600000000E+02  0.00000000000E+00 0. -1.
        -11    1    1    2    0    0  0.23452190268E+01  0.32654433474E+00  0.34900252677E+02  0.34980484851E+02  0.00000000000E+00 0.  1.
         11    1    1    2    0    0 -0.24879594038E+00  0.62784532820E+00 -0.44937269931E+02  0.44942344377E+02  0.00000000000E+00 0. -1.
        -15    1    1    2    0    0 -0.37115489386E+00  0.80137517992E+00  0.28258885075E+01  0.34530179541E+01  0.17770000000E+01 0.  1.
         15    1    1    2    0    0 -0.17252681926E+01 -0.17557648429E+01  0.72111287470E+01  0.78241528184E+01  0.17770000000E+01 0.  1.
</event>
<event>
 6    1  0.3691007E-002  0.4650458E+02  0.7546771E-02  0.1313733E+00
        -11   -1    0    0    0    0  0.00000000000E+00  0.00000000000E+00  0.45600000000E+02  0.45600000000E+02  0.00000000000E+00 0.  1.
         11   -1    0    0    0    0 -0.00000000000E+00 -0.00000000000E+00 -0.45600000000E+02  0.45600000000E+02  0.00000000000E+00 0.  1.
        -11    1    1    2    0    0 -0.74202852568E-01  0.72255780415E+00  0.44689517281E+02  0.44695419795E+02  0.00000000000E+00 0.  1.
         11    1    1    2    0    0  0.15431675317E+01  0.99874491537E+00 -0.35686560029E+02  0.35733869425E+02  0.00000000000E+00 0.  1.
        -15    1    1    2    0    0  0.10785248745E+01 -0.18448817031E+01 -0.47406797850E+01  0.54953233051E+01  0.17770000000E+01 0.  1.
         15    1    1    2    0    0 -0.25474895536E+01  0.12357898359E+00 -0.42622774677E+01  0.52753874742E+01  0.17770000000E+01 0.  1.
</event>
<event>
 6    1  0.3691007E-002  0.5121380E+02  0.7546771E-02  0.1292699E+00
        -11   -1    0    0    0    0  0.00000000000E+00  0.00000000000E+00  0.45600000000E+02  0.45600000000E+02  0.00000000000E+00 0.  1.
         11   -1    0    0    0    0 -0.00000000000E+00 -0.00000000000E+00 -0.45600000000E+02  0.45600000000E+02  0.00000000000E+00 0. -1.
        -11    1    1    2    0    0  0.89677904053E+00 -0.23981446200E+01  0.20760441877E+02  0.20917725909E+02  0.00000000000E+00 0.  1.
         11    1    1    2    0    0  0.81262007960E+01  0.26567344302E+00 -0.39150868181E+02  0.39986200133E+02  0.00000000000E+00 0. -1.
        -15    1    1    2    0    0 -0.57971072824E+01  0.95753307547E-01 -0.41615790248E+01  0.73547325253E+01  0.17770000000E+01 0. -1.
         15    1    1    2    0    0 -0.32258725541E+01  0.20367178694E+01  0.22552005328E+02  0.22941341433E+02  0.17770000000E+01 0.  1.
</event>
<event>
 6    1  0.3691007E-002  0.4592319E+02  0.7546771E-02  0.1316528E+00
        -11   -1    0    0    0    0  0.00000000000E+00  0.00000000000E+00  0.45600000000E+02  0.45600000000E+02  0.00000000000E+00 0.  1.
         11   -1    0    0    0    0 -0.00000000000E+00 -0.00000000000E+00 -0.45600000000E+02  0.45600000000E+02  0.00000000000E+00 0. -1.
        -11    1    1    2    0    0  0.53844513552E-01  0.61347350563E+00  0.45272621433E+02  0.45276809742E+02  0.00000000000E+00 0.  1.
         11    1    1    2    0    0  0.96716773537E+00 -0.44191210962E-01 -0.29934141771E+02  0.29949794822E+02  0.00000000000E+00 0. -1.
        -15    1    1    2    0    0 -0.17368226964E+01 -0.52767757251E+00 -0.84870933935E+01  0.88590902450E+01  0.17770000000E+01 0.  1.
         15    1    1    2    0    0  0.71581044743E+00 -0.41604722156E-01 -0.68513862690E+01  0.71143051914E+01  0.17770000000E+01 0. -1.
</event>
<event>
 6    1  0.3691007E-002  0.4703057E+02  0.7546771E-02  0.1311244E+00
        -11   -1    0    0    0    0  0.00000000000E+00  0.00000000000E+00  0.45600000000E+02  0.45600000000E+02  0.00000000000E+00 0. -1.
         11   -1    0    0    0    0 -0.00000000000E+00 -0.00000000000E+00 -0.45600000000E+02  0.45600000000E+02  0.00000000000E+00 0. -1.
        -11    1    1    2    0    0  0.21459338686E+01  0.12871368413E+01  0.44098486233E+02  0.44169426546E+02  0.00000000000E+00 0. -1.
         11    1    1    2    0    0 -0.78248013806E+00 -0.14929924365E+01 -0.41476292505E+02  0.41510530490E+02  0.00000000000E+00 0. -1.
        -15    1    1    2    0    0  0.30362040613E+00  0.10992078332E+01 -0.50548459108E+00  0.21711026883E+01  0.17770000000E+01 0.  1.
         15    1    1    2    0    0 -0.16670741367E+01 -0.89335223798E+00 -0.21167091367E+01  0.33489402753E+01  0.17770000000E+01 0.  1.
</event>
<event>
 6    1  0.3691007E-002  0.4761154E+02  0.7546771E-02  0.1308539E+00
        -11   -1    0    0    0    0  0.00000000000E+00  0.00000000000E+00  0.45600000000E+02  0.45600000000E+02  0.00000000000E+00 0.  1.
         11   -1    0    0    0    0 -0.00000000000E+00 -0.00000000000E+00 -0.45600000000E+02  0.45600000000E+02  0.00000000000E+00 0.  1.
        -11    1    1    2    0    0  0.58302389292E+00  0.57291377550E+00  0.42397170318E+02  0.42405049205E+02  0.00000000000E+00 0.  1.
         11    1    1    2    0    0  0.79897630832E+00 -0.51274617455E+00 -0.43578123206E+02  0.43588462853E+02  0.00000000000E+00 0.  1.
        -15    1    1    2    0    0  0.49577469419E+00  0.33572681857E+00  0.17103446292E+01  0.25380135529E+01  0.17770000000E+01 0.  1.
         15    1    1    2    0    0 -0.18777748954E+01 -0.39589441952E+00 -0.52939174163E+00  0.26684743891E+01  0.17770000000E+01 0.  1.
</event>
<event>
 6    1  0.3691007E-002  0.4882802E+02  0.7546771E-02  0.1303015E+00
        -11   -1    0    0    0    0  0.00000000000E+00  0.00000000000E+00  0.45600000000E+02  0.45600000000E+02  0.00000000000E+00 0.  1.
         11   -1    0    0    0    0 -0.00000000000E+00 -0.00000000000E+00 -0.45600000000E+02  0.45600000000E+02  0.00000000000E+00 0.  1.
        -11    1    1    2    0    0  0.10357214723E+01  0.52496441493E+00  0.37311262623E+02  0.37329326610E+02  0.00000000000E+00 0.  1.
         11    1    1    2    0    0 -0.56436109285E+01 -0.53549359325E+01 -0.41651643726E+02  0.42371984946E+02  0.00000000000E+00 0.  1.
        -15    1    1    2    0    0 -0.99887591831E+00  0.11729441956E+01 -0.11899206473E+01  0.26357525174E+01  0.17770000000E+01 0.  1.
         15    1    1    2    0    0  0.56067653745E+01  0.36570273219E+01  0.55303017505E+01  0.88629359272E+01  0.17770000000E+01 0. -1.
</event>
<event>
 6    1  0.3691007E-002  0.4693225E+02  0.7546771E-02  0.1311706E+00
        -11   -1    0    0    0    0  0.00000000000E+00  0.00000000000E+00  0.45600000000E+02  0.45600000000E+02  0.00000000000E+00 0.  1.
         11   -1    0    0    0    0 -0.00000000000E+00 -0.00000000000E+00 -0.45600000000E+02  0.45600000000E+02  0.00000000000E+00 0. -1.
        -11    1    1    2    0    0  0.23259749907E+00 -0.62754455814E+00  0.44262686217E+02  0.44267745650E+02  0.00000000000E+00 0.  1.
         11    1    1    2    0    0  0.12173031758E+01 -0.14228063404E+01 -0.34204626827E+02  0.34255841856E+02  0.00000000000E+00 0. -1.
        -15    1    1    2    0    0 -0.89820914859E+00 -0.52537972966E+00 -0.91397763749E+01  0.93688870586E+01  0.17770000000E+01 0. -1.
         15    1    1    2    0    0 -0.55169152628E+00  0.25757306282E+01 -0.91828301544E+00  0.33075254354E+01  0.17770000000E+01 0. -1.
</event>
<event>
 6    1  0.3691007E-002  0.4622202E+02  0.7546771E-02  0.1315085E+00
        -11   -1    0    0    0    0  0.00000000000E+00  0.00000000000E+00  0.45600000000E+02  0.45600000000E+02  0.00000000000E+00 0. -1.
         11   -1    0    0    0    0 -0.00000000000E+00 -0.00000000000E+00 -0.45600000000E+02  0.45600000000E+02  0.00000000000E+00 0. -1.
        -11    1    1    2    0    0  0.14494791853E+01  0.73960219868E+00  0.32012497281E+02  0.32053829467E+02  0.00000000000E+00 0. -1.
         11    1    1    2    0    0 -0.14912018221E+01 -0.33679982417E+00 -0.44951996454E+02  0.44977984640E+02  0.00000000000E+00 0. -1.
        -15    1    1    2    0    0 -0.19547565065E+01  0.47616681648E+00  0.84853899966E+01  0.88998528208E+01  0.17770000000E+01 0. -1.
         15    1    1    2    0    0  0.19964791432E+01 -0.87896919099E+00  0.44541091766E+01  0.52683330727E+01  0.17770000000E+01 0. -1.
</event>
<event>
 6    1  0.3691007E-002  0.5188755E+02  0.7546771E-02  0.1289902E+00
        -11   -1    0    0    0    0  0.00000000000E+00  0.00000000000E+00  0.45600000000E+02  0.45600000000E+02  0.00000000000E+00 0.  1.
         11   -1    0    0    0    0 -0.00000000000E+00 -0.00000000000E+00 -0.45600000000E+02  0.45600000000E+02  0.00000000000E+00 0. -1.
        -11    1    1    2    0    0  0.35309882790E+00 -0.41191151153E+00  0.20807187176E+02  0.20814259248E+02  0.00000000000E+00 0.  1.
         11    1    1    2    0    0  0.30647096273E+01 -0.38658585975E+01 -0.39001680255E+02  0.39312445491E+02  0.00000000000E+00 0. -1.
        -15    1    1    2    0    0 -0.26956773009E+01  0.12496291037E+01  0.24001040632E+02  0.24249452147E+02  0.17770000000E+01 0.  1.
         15    1    1    2    0    0 -0.72213115436E+00  0.30281410053E+01 -0.58065475534E+01  0.68238431138E+01  0.17770000000E+01 0.  1.
</event>
<event>
 6    1  0.3691007E-002  0.4692383E+02  0.7546771E-02  0.1311746E+00
        -11   -1    0    0    0    0  0.00000000000E+00  0.00000000000E+00  0.45600000000E+02  0.45600000000E+02  0.00000000000E+00 0.  1.
         11   -1    0    0    0    0 -0.00000000000E+00 -0.00000000000E+00 -0.45600000000E+02  0.45600000000E+02  0.00000000000E+00 0. -1.
        -11    1    1    2    0    0  0.72348678135E+00  0.81235666082E+00  0.39821927634E+02  0.39836782965E+02  0.00000000000E+00 0.  1.
         11    1    1    2    0    0 -0.67790987222E+00 -0.23628480528E+01 -0.44207880698E+02  0.44276171114E+02  0.00000000000E+00 0. -1.
        -15    1    1    2    0    0  0.66861693115E+00  0.24062377871E+01  0.12411374244E+01  0.33068383684E+01  0.17770000000E+01 0. -1.
         15    1    1    2    0    0 -0.71419384029E+00 -0.85574639511E+00  0.31448156395E+01  0.37802075526E+01  0.17770000000E+01 0. -1.
</event>
<event>
 6    1  0.3691007E-002  0.4715946E+02  0.7546771E-02  0.1310640E+00
        -11   -1    0    0    0    0  0.00000000000E+00  0.00000000000E+00  0.45600000000E+02  0.45600000000E+02  0.00000000000E+00 0. -1.
         11   -1    0    0    0    0 -0.00000000000E+00 -0.00000000000E+00 -0.45600000000E+02  0.45600000000E+02  0.00000000000E+00 0. -1.
        -11    1    1    2    0    0  0.19782522064E+00 -0.77767590628E+00  0.20164396708E+02  0.20180357014E+02  0.00000000000E+00 0. -1.
         11    1    1    2    0    0 -0.27776107063E+00 -0.15755858115E+01 -0.44011470153E+02  0.44040539585E+02  0.00000000000E+00 0. -1.
        -15    1    1    2    0    0 -0.35780935496E+01 -0.35180561218E+01  0.12287799082E+02  0.13391310899E+02  0.17770000000E+01 0.  1.
         15    1    1    2    0    0  0.36580293996E+01  0.58713178396E+01  0.11559274364E+02  0.13587792502E+02  0.17770000000E+01 0. -1.
</event>
<event>
 6    1  0.3691007E-002  0.4777514E+02  0.7546771E-02  0.1307785E+00
        -11   -1    0    0    0    0  0.00000000000E+00  0.00000000000E+00  0.45600000000E+02  0.45600000000E+02  0.00000000000E+00 0. -1.
         11   -1    0    0    0    0 -0.00000000000E+00 -0.00000000000E+00 -0.45600000000E+02  0.45600000000E+02  0.00000000000E+00 0. -1.
        -11    1    1    2    0    0 -0.63934506516E+00 -0.12527980877E+01  0.40115159351E+02  0.40139809104E+02  0.00000000000E+00 0. -1.
         11    1    1    2    0    0  0.97705409328E+00 -0.44293627854E-01 -0.43413849118E+02  0.43424864903E+02  0.00000000000E+00 0. -1.
        -15    1    1    2    0    0 -0.25141235310E-01  0.35532356201E+01  0.15921293464E+01  0.42800374191E+01  0.17770000000E+01 0. -1.
         15    1    1    2    0    0 -0.31256779282E+00 -0.22561439045E+01  0.17065604208E+01  0.33552885737E+01  0.17770000000E+01 0.  1.
</event>
<event>
 6    1  0.3691007E-002  0.4647596E+02  0.7546771E-02  0.1313869E+00
        -11   -1    0    0    0    0  0.00000000000E+00  0.00000000000E+00  0.45600000000E+02  0.45600000000E+02  0.00000000000E+00 0.  1.
         11   -1    0    0    0    0 -0.00000000000E+00 -0.00000000000E+00 -0.45600000000E+02  0.45600000000E+02  0.00000000000E+00 0.  1.
        -11    1    1    2    0    0  0.29498734050E+00 -0.94653273717E+00  0.24505079951E+02  0.24525127628E+02  0.00000000000E+00 0.  1.
         11    1    1    2    0    0  0.10978825958E+01  0.14217541272E+01 -0.44687950596E+02  0.44724038944E+02  0.00000000000E+00 0.  1.
        -15    1    1    2    0    0 -0.28452892395E+01  0.11427757092E+01  0.18128174354E+02  0.18471330261E+02  0.17770000000E+01 0.  1.
         15    1    1    2    0    0  0.14524193032E+01 -0.16179970992E+01  0.20546962911E+01  0.34795031677E+01  0.17770000000E+01 0. -1.
</event>
<event>
 6    1  0.3691007E-002  0.4646094E+02  0.7546771E-02  0.1313941E+00
        -11   -1    0    0    0    0  0.00000000000E+00  0.00000000000E+00  0.45600000000E+02  0.45600000000E+02  0.00000000000E+00 0.  1.
         11   -1    0    0    0    0 -0.00000000000E+00 -0.00000000000E+00 -0.45600000000E+02  0.45600000000E+02  0.00000000000E+00 0. -1.
        -11    1    1    2    0    0  0.78863810449E+00 -0.12401695381E+00  0.39599872196E+02  0.39607918504E+02  0.00000000000E+00 0.  1.
         11    1    1    2    0    0 -0.96263975517E+00 -0.19606356612E+00 -0.44728267956E+02  0.44739055316E+02  0.00000000000E+00 0. -1.
        -15    1    1    2    0    0 -0.92982328107E+00  0.85015580271E+00  0.36030006401E+01  0.42103062639E+01  0.17770000000E+01 0. -1.
         15    1    1    2    0    0  0.11038249317E+01 -0.53007528279E+00  0.15253951200E+01  0.26427199166E+01  0.17770000000E+01 0. -1.
</event>
<event>
 6    1  0.3691007E-002  0.4624164E+02  0.7546771E-02  0.1314991E+00
        -11   -1    0    0    0    0  0.00000000000E+00  0.00000000000E+00  0.45600000000E+02  0.45600000000E+02  0.00000000000E+00 0.  1.
         11   -1    0    0    0    0 -0.00000000000E+00 -0.00000000000E+00 -0.45600000000E+02  0.45600000000E+02  0.00000000000E+00 0. -1.
        -11    1    1    2    0    0 -0.15393304132E+01  0.17943044261E+01  0.12893951795E+02  0.13108892378E+02  0.00000000000E+00 0.  1.
         11    1    1    2    0    0 -0.32669630975E+01 -0.44022315037E+01 -0.44622884923E+02  0.44958364616E+02  0.00000000000E+00 0. -1.
        -15    1    1    2    0    0  0.23319951665E+01 -0.16768251688E+00  0.25470826139E+02  0.25639559905E+02  0.17770000000E+01 0. -1.
         15    1    1    2    0    0  0.24742983442E+01  0.27756095945E+01  0.62581069886E+01  0.74931831018E+01  0.17770000000E+01 0.  1.
</event>
<event>
 6    1  0.3691007E-002  0.4890707E+02  0.7546771E-02  0.1302662E+00
        -11   -1    0    0    0    0  0.00000000000E+00  0.00000000000E+00  0.45600000000E+02  0.45600000000E+02  0.00000000000E+00 0. -1.
         11   -1    0    0    0    0 -0.00000000000E+00 -0.00000000000E+00 -0.45600000000E+02  0.45600000000E+02  0.00000000000E+00 0. -1.
        -11    1    1    2    0    0 -0.16183020287E+00 -0.59211580251E+00  0.42288472705E+02  0.42292927468E+02  0.00000000000E+00 0. -1.
         11    1    1    2    0    0  0.62922458855E+01  0.61729324324E+01 -0.33242065361E+02  0.34390876153E+02  0.00000000000E+00 0. -1.
        -15    1    1    2    0    0 -0.62650832285E+01 -0.66225828265E+01 -0.74454283731E+01  0.11903865079E+02  0.17770000000E+01 0.  1.
         15    1    1    2    0    0  0.13466754584E+00  0.10417661966E+01 -0.16009789710E+01  0.26123313002E+01  0.17770000000E+01 0. -1.
</event>
<event>
 6    1  0.3691007E-002  0.3948086E+02  0.7546771E-02  0.1351090E+00
        -11   -1    0    0    0    0  0.00000000000E+00  0.00000000000E+00  0.45600000000E+02  0.45600000000E+02  0.00000000000E+00 0.  1.
         11   -1    0    0    0    0 -0.00000000000E+00 -0.00000000000E+00 -0.45600000000E+02  0.45600000000E+02  0.00000000000E+00 0. -1.
        -11    1    1    2    0    0 -0.53076742124E+00 -0.11582233038E+00  0.38663323245E+02  0.38667139708E+02  0.00000000000E+00 0.  1.
         11    1    1    2    0    0  0.39987548364E+01  0.47092653213E+01 -0.40042299616E+02  0.40516082962E+02  0.00000000000E+00 0. -1.
        -15    1    1    2    0    0 -0.45468161273E+01 -0.29292371599E+01 -0.33383622595E+01  0.65997241465E+01  0.17770000000E+01 0. -1.
         15    1    1    2    0    0  0.10788287121E+01 -0.16642058309E+01  0.47173386305E+01  0.54170531834E+01  0.17770000000E+01 0. -1.
</event>
<event>
 6    1  0.3691007E-002  0.4601779E+02  0.7546771E-02  0.1316070E+00
        -11   -1    0    0    0    0  0.00000000000E+00  0.00000000000E+00  0.45600000000E+02  0.45600000000E+02  0.00000000000E+00 0. -1.
         11   -1    0    0    0    0 -0.00000000000E+00 -0.00000000000E+00 -0.45600000000E+02  0.45600000000E+02  0.00000000000E+00 0.  1.
        -11    1    1    2    0    0  0.83638548701E+00 -0.43336520162E+00  0.45172389248E+02  0.45182209955E+02  0.00000000000E+00 0. -1.
         11    1    1    2    0    0 -0.89206307464E+00  0.47436109718E+00 -0.27968328057E+02  0.27986571231E+02  0.00000000000E+00 0.  1.
        -15    1    1    2    0    0  0.38264365049E+00  0.18748121073E+01 -0.64308036855E+01  0.69407709689E+01  0.17770000000E+01 0. -1.
         15    1    1    2    0    0 -0.32696606286E+00 -0.19158080028E+01 -0.10773257506E+02  0.11090447844E+02  0.17770000000E+01 0. -1.
</event>
<event>
 6    1  0.3691007E-002  0.4604510E+02  0.7546771E-02  0.1315938E+00
        -11   -1    0    0    0    0  0.00000000000E+00  0.00000000000E+00  0.45600000000E+02  0.45600000000E+02  0.00000000000E+00 0.  1.
         11   -1    0    0    0    0 -0.00000000000E+00 -0.00000000000E+00 -0.45600000000E+02  0.45600000000E+02  0.00000000000E+00 0. -1.
        -11    1    1    2    0    0 -0.16073383729E+01  0.98197650449E+00  0.43997632205E+01  0.47859931985E+01  0.00000000000E+00 0.  1.
         11    1    1    2    0    0 -0.57814098443E+00 -0.52591753164E+00 -0.45148135246E+02  0.45154899540E+02  0.00000000000E+00 0. -1.
        -15    1    1    2    0    0  0.18259203510E+01 -0.25414064221E+01  0.19206490545E+02  0.19540720042E+02  0.17770000000E+01 0.  1.
         15    1    1    2    0    0  0.35955900629E+00  0.20853474492E+01  0.21541881481E+02  0.21718387219E+02  0.17770000000E+01 0.  1.
</event>
<event>
 6    1  0.3691007E-002  0.4926467E+02  0.7546771E-02  0.1301077E+00
        -11   -1    0    0    0    0  0.00000000000E+00  0.00000000000E+00  0.45600000000E+02  0.45600000000E+02  0.00000000000E+00 0. -1.
         11   -1    0    0    0    0 -0.00000000000E+00 -0.00000000000E+00 -0.45600000000E+02  0.45600000000E+02  0.00000000000E+00 0. -1.
        -11    1    1    2    0    0  0.56427137327E+00 -0.13745975055E+01  0.36949631974E+02  0.36979497340E+02  0.00000000000E+00 0. -1.
         11    1    1    2    0    0 -0.23961771712E+01 -0.17889329359E+01 -0.41828573659E+02  0.41935325448E+02  0.00000000000E+00 0. -1.
        -15    1    1    2    0    0  0.19403442389E+01  0.53030200885E+00  0.76256763690E+01  0.80842331158E+01  0.17770000000E+01 0.  1.
         15    1    1    2    0    0 -0.10843844089E+00  0.26332284325E+01 -0.27467346840E+01  0.42009440960E+01  0.17770000000E+01 0. -1.
</event>
<event>
 6    1  0.3691007E-002  0.4596798E+02  0.7546771E-02  0.1316311E+00
        -11   -1    0    0    0    0  0.00000000000E+00  0.00000000000E+00  0.45600000000E+02  0.45600000000E+02  0.00000000000E+00 0. -1.
         11   -1    0    0    0    0 -0.00000000000E+00 -0.00000000000E+00 -0.45600000000E+02  0.45600000000E+02  0.00000000000E+00 0. -1.
        -11    1    1    2    0    0 -0.29136283830E+00 -0.11897868251E+01  0.99183293822E+01  0.99936851425E+01  0.00000000000E+00 0. -1.
         11    1    1    2    0    0 -0.13960617612E+01  0.27087445373E+01 -0.45129250075E+02  0.45232018502E+02  0.00000000000E+00 0. -1.
        -15    1    1    2    0    0 -0.95621960264E+00 -0.86519746175E+00  0.27735239855E+02  0.27822008939E+02  0.17770000000E+01 0.  1.
         15    1    1    2    0    0  0.26436442022E+01 -0.65376025040E+00  0.74756808379E+01  0.81522874166E+01  0.17770000000E+01 0. -1.
</event>
<event>
 6    1  0.3691007E-002  0.5283775E+02  0.7546771E-02  0.1286039E+00
        -11   -1    0    0    0    0  0.00000000000E+00  0.00000000000E+00  0.45600000000E+02  0.45600000000E+02  0.00000000000E+00 0. -1.
         11   -1    0    0    0    0 -0.00000000000E+00 -0.00000000000E+00 -0.45600000000E+02  0.45600000000E+02  0.00000000000E+00 0.  1.
        -11    1    1    2    0    0 -0.66447447394E+00  0.98452458306E+00  0.38343855698E+02  0.38362248172E+02  0.00000000000E+00 0. -1.
         11    1    1    2    0    0  0.12977746338E+01  0.54766244241E+01 -0.31277913244E+02  0.31780268894E+02  0.00000000000E+00 0.  1.
        -15    1    1    2    0    0 -0.13295391534E+01  0.88413318413E+00  0.57144064078E+01  0.61936689806E+01  0.17770000000E+01 0. -1.
         15    1    1    2    0    0  0.69623899359E+00 -0.73452821913E+01 -0.12780348863E+02  0.14863813954E+02  0.17770000000E+01 0.  1.
</event>
<event>
 6    1  0.3691007E-002  0.4594446E+02  0.7546771E-02  0.1316425E+00
        -11   -1    0    0    0    0  0.00000000000E+00  0.00000000000E+00  0.45600000000E+02  0.45600000000E+02  0.00000000000E+00 0. -1.
         11   -1    0    0    0    0 -0.00000000000E+00 -0.00000000000E+00 -0.45600000000E+02  0.45600000000E+02  0.00000000000E+00 0. -1.
        -11    1    1    2    0    0 -0.56030234343E+00 -0.21176128064E+00  0.21307980899E+02  0.21316398184E+02  0.00000000000E+00 0. -1.
         11    1    1    2    0    0 -0.10316073681E+00  0.72138444381E+00 -0.45249670260E+02  0.45255537742E+02  0.00000000000E+00 0. -1.
        -15    1    1    2    0    0 -0.37496453526E+00 -0.15524803236E+01  0.19271118327E+02  0.19418664324E+02  0.17770000000E+01 0. -1.
         15    1    1    2    0    0  0.10384276155E+01  0.10428571604E+01  0.46705710345E+01  0.52093997503E+01  0.17770000000E+01 0. -1.
</event>
<event>
 6    1  0.3691007E-002  0.4036089E+02  0.7546771E-02  0.1345934E+00
        -11   -1    0    0    0    0  0.00000000000E+00  0.00000000000E+00  0.45600000000E+02  0.45600000000E+02  0.00000000000E+00 0.  1.
         11   -1    0    0    0    0 -0.00000000000E+00 -0.00000000000E+00 -0.45600000000E+02  0.45600000000E+02  0.00000000000E+00 0.  1.
        -11    1    1    2    0    0  0.16394007147E+00  0.54369709032E+00  0.40169977509E+02  0.40173991287E+02  0.00000000000E+00 0.  1.
         11    1    1    2    0    0 -0.13834564147E+01 -0.10081991770E+00 -0.40535315837E+02  0.40559042719E+02  0.00000000000E+00 0.  1.
        -15    1    1    2    0    0 -0.94495947850E+00 -0.42193874351E-01  0.48009902165E+01  0.52059547442E+01  0.17770000000E+01 0. -1.
         15    1    1    2    0    0  0.21644758217E+01 -0.40068329827E+00 -0.44356518886E+01  0.52610112493E+01  0.17770000000E+01 0. -1.
</event>
<event>
 6    1  0.3691007E-002  0.3747901E+02  0.7546771E-02  0.1363424E+00
        -11   -1    0    0    0    0  0.00000000000E+00  0.00000000000E+00  0.45600000000E+02  0.45600000000E+02  0.00000000000E+00 0. -1.
         11   -1    0    0    0    0 -0.00000000000E+00 -0.00000000000E+00 -0.45600000000E+02  0.45600000000E+02  0.00000000000E+00 0.  1.
        -11    1    1    2    0    0 -0.93037848078E+01  0.36157843282E+00  0.40615416905E+02  0.41668972162E+02  0.00000000000E+00 0. -1.
         11    1    1    2    0    0 -0.12141854129E+01  0.54065726375E+01 -0.34076358764E+02  0.34523955458E+02  0.00000000000E+00 0.  1.
        -15    1    1    2    0    0  0.92260903297E+01 -0.60187018614E+01 -0.46109035620E+01  0.12073262837E+02  0.17770000000E+01 0. -1.
         15    1    1    2    0    0  0.12918798911E+01  0.25055079108E+00 -0.19281545791E+01  0.29338095427E+01  0.17770000000E+01 0. -1.
</event>
<event>
 6    1  0.3691007E-002  0.4935200E+02  0.7546771E-02  0.1300692E+00
        -11   -1    0    0    0    0  0.00000000000E+00  0.00000000000E+00  0.45600000000E+02  0.45600000000E+02  0.00000000000E+00 0. -1.
         11   -1    0    0    0    0 -0.00000000000E+00 -0.00000000000E+00 -0.45600000000E+02  0.45600000000E+02  0.00000000000E+00 0. -1.
        -11    1    1    2    0    0 -0.35659456379E+01  0.19022095765E+01  0.25377618318E+02  0.25697429464E+02  0.00000000000E+00 0. -1.
         11    1    1    2    0    0  0.77563876177E+01  0.70374925446E+01 -0.40516257021E+02  0.41847997959E+02  0.00000000000E+00 0. -1.
        -15    1    1    2    0    0 -0.63774714044E+00 -0.13303217355E+01 -0.28824278903E+01  0.36935886178E+01  0.17770000000E+01 0. -1.
         15    1    1    2    0    0 -0.35526948393E+01 -0.76093803856E+01  0.18021066593E+02  0.19960983959E+02  0.17770000000E+01 0.  1.
</event>
<event>
 6    1  0.3691007E-002  0.4671056E+02  0.7546771E-02  0.1312754E+00
        -11   -1    0    0    0    0  0.00000000000E+00  0.00000000000E+00  0.45600000000E+02  0.45600000000E+02  0.00000000000E+00 0.  1.
         11   -1    0    0    0    0 -0.00000000000E+00 -0.00000000000E+00 -0.45600000000E+02  0.45600000000E+02  0.00000000000E+00 0. -1.
        -11    1    1    2    0    0  0.32854178257E+01 -0.91583827300E+00  0.44358506986E+02  0.44489435511E+02  0.00000000000E+00 0.  1.
         11    1    1    2    0    0 -0.28005859873E+00 -0.11337082606E+01 -0.36676908980E+02  0.36695495358E+02  0.00000000000E+00 0. -1.
        -15    1    1    2    0    0  0.16306117988E+00  0.10127489859E+01 -0.87546338638E+00  0.22307878872E+01  0.17770000000E+01 0. -1.
         15    1    1    2    0    0 -0.31684204069E+01  0.10367975477E+01 -0.68061346198E+01  0.77842812445E+01  0.17770000000E+01 0. -1.
</event>
<event>
 6    1  0.3691007E-002  0.4712934E+02  0.7546771E-02  0.1310781E+00
        -11   -1    0    0    0    0  0.00000000000E+00  0.00000000000E+00  0.45600000000E+02  0.45600000000E+02  0.00000000000E+00 0.  1.
         11   -1    0    0    0    0 -0.00000000000E+00 -0.00000000000E+00 -0.45600000000E+02  0.45600000000E+02  0.00000000000E+00 0. -1.
        -11    1    1    2    0    0  0.11193075966E+01  0.30319974324E+01  0.43951986573E+02  0.44070658965E+02  0.00000000000E+00 0.  1.
         11    1    1    2    0    0 -0.11686573192E+01 -0.24655690157E+01 -0.39220898402E+02  0.39315692312E+02  0.00000000000E+00 0. -1.
        -15    1    1    2    0    0  0.18935719630E+01  0.52585580361E-01 -0.24215003530E+00  0.26085907425E+01  0.17770000000E+01 0.  1.
         15    1    1    2    0    0 -0.18442222403E+01 -0.61901399707E+00 -0.44889381349E+01  0.52050579803E+01  0.17770000000E+01 0. -1.
</event>
<event>
 6    1  0.3691007E-002  0.2660550E+02  0.7546771E-02  0.1450796E+00
        -11   -1    0    0    0    0  0.00000000000E+00  0.00000000000E+00  0.45600000000E+02  0.45600000000E+02  0.00000000000E+00 0.  1.
         11   -1    0    0    0    0 -0.00000000000E+00 -0.00000000000E+00 -0.45600000000E+02  0.45600000000E+02  0.00000000000E+00 0.  1.
        -11    1    1    2    0    0 -0.87553336097E-01  0.10158575185E+02  0.15119820095E+02  0.18215742507E+02  0.00000000000E+00 0.  1.
         11    1    1    2    0    0 -0.39334135365E+00  0.33085738657E+00 -0.26102216081E+02  0.26107276157E+02  0.00000000000E+00 0.  1.
        -15    1    1    2    0    0 -0.93975314361E+01 -0.54880566302E+01  0.25937710655E+02  0.28184302824E+02  0.17770000000E+01 0. -1.
         15    1    1    2    0    0  0.98784261258E+01 -0.50013759414E+01 -0.14955314670E+02  0.18692678511E+02  0.17770000000E+01 0.  1.
</event>
<event>
 6    1  0.3691007E-002  0.4063672E+02  0.7546771E-02  0.1344349E+00
        -11   -1    0    0    0    0  0.00000000000E+00  0.00000000000E+00  0.45600000000E+02  0.45600000000E+02  0.00000000000E+00 0. -1.
         11   -1    0    0    0    0 -0.00000000000E+00 -0.00000000000E+00 -0.45600000000E+02  0.45600000000E+02  0.00000000000E+00 0. -1.
        -11    1    1    2    0    0 -0.65520130850E+00  0.63028926243E+00  0.39875190365E+02  0.39885553274E+02  0.00000000000E+00 0. -1.
         11    1    1    2    0    0 -0.31365814277E+01  0.95441663495E+00 -0.41375858167E+02  0.41505550150E+02  0.00000000000E+00 0. -1.
        -15    1    1    2    0    0 -0.48974875847E+00  0.70908281151E+00  0.36956859851E+01  0.41902835441E+01  0.17770000000E+01 0. -1.
         15    1    1    2    0    0  0.42815314947E+01 -0.22937887089E+01 -0.21950181832E+01  0.56186130322E+01  0.17770000000E+01 0. -1.
</event>
<event>
 6    1  0.3691007E-002  0.5452171E+02  0.7546771E-02  0.1279416E+00
        -11   -1    0    0    0    0  0.00000000000E+00  0.00000000000E+00  0.45600000000E+02  0.45600000000E+02  0.00000000000E+00 0.  1.
         11   -1    0    0    0    0 -0.00000000000E+00 -0.00000000000E+00 -0.45600000000E+02  0.45600000000E+02  0.00000000000E+00 0. -1.
        -11    1    1    2    0    0 -0.13541556518E+01 -0.52488924598E+00  0.34291672245E+02  0.34322412963E+02  0.00000000000E+00 0.  1.
         11    1    1    2    0    0 -0.22833267658E+00 -0.80210903842E+00 -0.36668806438E+02  0.36678288951E+02  0.00000000000E+00 0. -1.
        -15    1    1    2    0    0  0.71068974912E+00 -0.21583967601E+01  0.10635423393E+02  0.11019696740E+02  0.17770000000E+01 0.  1.
         15    1    1    2    0    0  0.87179857927E+00  0.34853950445E+01 -0.82582891995E+01  0.91796013465E+01  0.17770000000E+01 0. -1.
</event>
<event>
 6    1  0.3691007E-002  0.3504323E+02  0.7546771E-02  0.1379697E+00
        -11   -1    0    0    0    0  0.00000000000E+00  0.00000000000E+00  0.45600000000E+02  0.45600000000E+02  0.00000000000E+00 0.  1.
         11   -1    0    0    0    0 -0.00000000000E+00 -0.00000000000E+00 -0.45600000000E+02  0.45600000000E+02  0.00000000000E+00 0. -1.
        -11    1    1    2    0    0 -0.55561939640E+00 -0.12461672853E+01  0.80284687942E+01  0.81435837932E+01  0.00000000000E+00 0.  1.
         11    1    1    2    0    0  0.29740032549E+01  0.95760067745E+01 -0.39891477621E+02  0.41132403138E+02  0.00000000000E+00 0. -1.
        -15    1    1    2    0    0  0.65848040493E+01 -0.21273519493E+01  0.29816073582E+02  0.30660092034E+02  0.17770000000E+01 0.  1.
         15    1    1    2    0    0 -0.90031879077E+01 -0.62024875399E+01  0.20469352443E+01  0.11263921035E+02  0.17770000000E+01 0. -1.
</event>
<event>
 6    1  0.3691007E-002  0.4794801E+02  0.7546771E-02  0.1306992E+00
        -11   -1    0    0    0    0  0.00000000000E+00  0.00000000000E+00  0.45600000000E+02  0.45600000000E+02  0.00000000000E+00 0.  1.
         11   -1    0    0    0    0 -0.00000000000E+00 -0.00000000000E+00 -0.45600000000E+02  0.45600000000E+02  0.00000000000E+00 0.  1.
        -11    1    1    2    0    0 -0.77701576069E+00  0.94308493009E+00  0.43234725076E+02  0.43251989724E+02  0.00000000000E+00 0.  1.
         11    1    1    2    0    0  0.82404389682E+00  0.47012300796E+00 -0.36805214955E+02  0.36817440322E+02  0.00000000000E+00 0.  1.
        -15    1    1    2    0    0 -0.25718427944E+00 -0.26354090110E+01  0.10391003525E+01  0.33539503502E+01  0.17770000000E+01 0. -1.
         15    1    1    2    0    0  0.21015614331E+00  0.12222010730E+01 -0.74686104733E+01  0.77766196042E+01  0.17770000000E+01 0.  1.
</event>
<event>
 6    1  0.3691007E-002  0.5067348E+02  0.7546771E-02  0.1294978E+00
        -11   -1    0    0    0    0  0.00000000000E+00  0.00000000000E+00  0.45600000000E+02  0.45600000000E+02  0.00000000000E+00 0. -1.
         11   -1    0    0    0    0 -0.00000000000E+00 -0.00000000000E+00 -0.45600000000E+02  0.45600000000E+02  0.00000000000E+00 0. -1.
        -11    1    1    2    0    0 -0.23143867844E+01 -0.41693368313E+00  0.29467224904E+02  0.29560912764E+02  0.00000000000E+00 0. -1.
         11    1    1    2    0    0  0.57935608899E+00  0.42000144356E+00 -0.40520196983E+02  0.40526515002E+02  0.00000000000E+00 0. -1.
        -15    1    1    2    0    0  0.20718972085E+01 -0.69839842538E+00 -0.45706365990E+01  0.53692612456E+01  0.17770000000E+01 0.  1.
         15    1    1    2    0    0 -0.33686651312E+00  0.69533066494E+00  0.15623608677E+02  0.15743310989E+02  0.17770000000E+01 0. -1.
</event>
<event>
 6    1  0.3691007E-002  0.4574972E+02  0.7546771E-02  0.1317371E+00
        -11   -1    0    0    0    0  0.00000000000E+00  0.00000000000E+00  0.45600000000E+02  0.45600000000E+02  0.00000000000E+00 0. -1.
         11   -1    0    0    0    0 -0.00000000000E+00 -0.00000000000E+00 -0.45600000000E+02  0.45600000000E+02  0.00000000000E+00 0.  1.
        -11    1    1    2    0    0  0.65155510390E+00 -0.31608644877E+00  0.45444509363E+02  0.45450279053E+02  0.00000000000E+00 0. -1.
         11    1    1    2    0    0 -0.24552424074E+00  0.43641923355E+00 -0.13774267342E+02  0.13783366233E+02  0.00000000000E+00 0.  1.
        -15    1    1    2    0    0 -0.79084382758E+00  0.10094546717E+01 -0.14995660536E+02  0.15154933078E+02  0.17770000000E+01 0.  1.
         15    1    1    2    0    0  0.38481296442E+00 -0.11297874565E+01 -0.16674581486E+02  0.16811421636E+02  0.17770000000E+01 0.  1.
</event>
<event>
 6    1  0.3691007E-002  0.4654503E+02  0.7546771E-02  0.1313540E+00
        -11   -1    0    0    0    0  0.00000000000E+00  0.00000000000E+00  0.45600000000E+02  0.45600000000E+02  0.00000000000E+00 0.  1.
         11   -1    0    0    0    0 -0.00000000000E+00 -0.00000000000E+00 -0.45600000000E+02  0.45600000000E+02  0.00000000000E+00 0.  1.
        -11    1    1    2    0    0  0.10308125739E+00  0.82149805440E+00  0.35454344727E+02  0.35464010557E+02  0.00000000000E+00 0.  1.
         11    1    1    2    0    0 -0.66723409257E+00  0.97271237607E+00 -0.44639389712E+02  0.44654971555E+02  0.00000000000E+00 0.  1.
        -15    1    1    2    0    0 -0.39513909355E+00 -0.27049375498E+01  0.27169915796E+01  0.42441246795E+01  0.17770000000E+01 0. -1.
         15    1    1    2    0    0  0.95929192873E+00  0.91072711930E+00  0.64680534054E+01  0.68368932085E+01  0.17770000000E+01 0.  1.
</event>
<event>
 6    1  0.3691007E-002  0.4638374E+02  0.7546771E-02  0.1314310E+00
        -11   -1    0    0    0    0  0.00000000000E+00  0.00000000000E+00  0.45600000000E+02  0.45600000000E+02  0.00000000000E+00 0. -1.
         11   -1    0    0    0    0 -0.00000000000E+00 -0.00000000000E+00 -0.45600000000E+02  0.45600000000E+02  0.00000000000E+00 0.  1.
        -11    1    1    2    0    0  0.46976443534E+00 -0.32979878753E+00  0.38902418083E+02  0.38906652112E+02  0.00000000000E+00 0. -1.
         11    1    1    2    0    0 -0.64825515752E+00 -0.37430600818E+00 -0.44810007537E+02  0.44816259496E+02  0.00000000000E+00 0.  1.
        -15    1    1    2    0    0 -0.19983052706E+00  0.14108770661E+01  0.17077760270E+01  0.28468815033E+01  0.17770000000E+01 0. -1.
         15    1    1    2    0    0  0.37832124924E+00 -0.70677227042E+00  0.41998134269E+01  0.46302068886E+01  0.17770000000E+01 0.  1.
</event>
<event>
 6    1  0.3691007E-002  0.4573105E+02  0.7546771E-02  0.1317462E+00
        -11   -1    0    0    0    0  0.00000000000E+00  0.00000000000E+00  0.45600000000E+02  0.45600000000E+02  0.00000000000E+00 0.  1.
         11   -1    0    0    0    0 -0.00000000000E+00 -0.00000000000E+00 -0.45600000000E+02  0.45600000000E+02  0.00000000000E+00 0. -1.
        -11    1    1    2    0    0 -0.14635805960E+00  0.75872198046E+00  0.94521969734E+01  0.94837285573E+01  0.00000000000E+00 0.  1.
         11    1    1    2    0    0  0.60480083376E+00  0.35076510272E+00 -0.45463570336E+02  0.45468945973E+02  0.00000000000E+00 0. -1.
        -15    1    1    2    0    0  0.44685455130E+00 -0.10499884500E+01  0.20382159714E+02  0.20491274200E+02  0.17770000000E+01 0.  1.
         15    1    1    2    0    0 -0.90529732546E+00 -0.59498633173E-01  0.15629213648E+02  0.15756051269E+02  0.17770000000E+01 0.  1.
</event>
<event>
 6    1  0.3691007E-002  0.4704623E+02  0.7546771E-02  0.1311171E+00
        -11   -1    0    0    0    0  0.00000000000E+00  0.00000000000E+00  0.45600000000E+02  0.45600000000E+02  0.00000000000E+00 0.  1.
         11   -1    0    0    0    0 -0.00000000000E+00 -0.00000000000E+00 -0.45600000000E+02  0.45600000000E+02  0.00000000000E+00 0.  1.
        -11    1    1    2    0    0 -0.28953037344E+00  0.71871405439E+00  0.44146969483E+02  0.44153768721E+02  0.00000000000E+00 0.  1.
         11    1    1    2    0    0  0.12280433471E+01  0.22097042220E+00 -0.18003954343E+02  0.18047140781E+02  0.00000000000E+00 0.  1.
        -15    1    1    2    0    0 -0.49018218847E+01 -0.28610102601E+01 -0.65872100854E+01  0.88748128548E+01  0.17770000000E+01 0. -1.
         15    1    1    2    0    0  0.39633089111E+01  0.19213257835E+01 -0.19555805055E+02  0.20124277643E+02  0.17770000000E+01 0.  1.
</event>
<event>
 6    1  0.3691007E-002  0.4450803E+02  0.7546771E-02  0.1323535E+00
        -11   -1    0    0    0    0  0.00000000000E+00  0.00000000000E+00  0.45600000000E+02  0.45600000000E+02  0.00000000000E+00 0.  1.
         11   -1    0    0    0    0 -0.00000000000E+00 -0.00000000000E+00 -0.45600000000E+02  0.45600000000E+02  0.00000000000E+00 0.  1.
        -11    1    1    2    0    0  0.93801949094E+00  0.67757426771E+00  0.27051107051E+01  0.29422119877E+01  0.00000000000E+00 0.  1.
         11    1    1    2    0    0 -0.12280070998E+01  0.52036544263E-01 -0.45053191796E+02  0.45069954518E+02  0.00000000000E+00 0.  1.
        -15    1    1    2    0    0  0.29081478096E+01  0.22273383719E+01  0.17704649864E+02  0.18166747527E+02  0.17770000000E+01 0.  1.
         15    1    1    2    0    0 -0.26181602008E+01 -0.29569491839E+01  0.24643431227E+02  0.25021085967E+02  0.17770000000E+01 0.  1.
</event>
<event>
 6    1  0.3691007E-002  0.4663102E+02  0.7546771E-02  0.1313131E+00
        -11   -1    0    0    0    0  0.00000000000E+00  0.00000000000E+00  0.45600000000E+02  0.45600000000E+02  0.00000000000E+00 0.  1.
         11   -1    0    0    0    0 -0.00000000000E+00 -0.00000000000E+00 -0.45600000000E+02  0.45600000000E+02  0.00000000000E+00 0.  1.
        -11    1    1    2    0    0 -0.16284931990E+01 -0.49987625631E+00  0.44536415655E+02  0.44568982328E+02  0.00000000000E+00 0.  1.
         11    1    1    2    0    0 -0.23602519104E+01  0.39417796886E+00 -0.33600546174E+02  0.33685647812E+02  0.00000000000E+00 0.  1.
        -15    1    1    2    0    0  0.18058440492E+01  0.82422862685E+00 -0.91621948000E+01  0.95416962911E+01  0.17770000000E+01 0. -1.
         15    1    1    2    0    0  0.21829010602E+01 -0.71853033939E+00 -0.17736746812E+01  0.34036735687E+01  0.17770000000E+01 0.  1.
</event>
<event>
 6    1  0.3691007E-002  0.4634356E+02  0.7546771E-02  0.1314502E+00
        -11   -1    0    0    0    0  0.00000000000E+00  0.00000000000E+00  0.45600000000E+02  0.45600000000E+02  0.00000000000E+00 0.  1.
         11   -1    0    0    0    0 -0.00000000000E+00 -0.00000000000E+00 -0.45600000000E+02  0.45600000000E+02  0.00000000000E+00 0.  1.
        -11    1    1    2    0    0  0.87075292131E+00  0.58917438704E-01  0.44847952594E+02  0.44856443615E+02  0.00000000000E+00 0.  1.
         11    1    1    2    0    0 -0.52642776839E+00 -0.25354811482E-01 -0.34646476579E+02  0.34650484966E+02  0.00000000000E+00 0.  1.
        -15    1    1    2    0    0  0.15041922384E+01 -0.11648655706E+00 -0.79333895816E+01  0.82687703234E+01  0.17770000000E+01 0. -1.
         15    1    1    2    0    0 -0.18485173913E+01  0.82923929834E-01 -0.22680864330E+01  0.34243010954E+01  0.17770000000E+01 0. -1.
</event>
<event>
 6    1  0.3691007E-002  0.4829529E+02  0.7546771E-02  0.1305411E+00
        -11   -1    0    0    0    0  0.00000000000E+00  0.00000000000E+00  0.45600000000E+02  0.45600000000E+02  0.00000000000E+00 0. -1.
         11   -1    0    0    0    0 -0.00000000000E+00 -0.00000000000E+00 -0.45600000000E+02  0.45600000000E+02  0.00000000000E+00 0.  1.
        -11    1    1    2    0    0  0.84621372987E+00 -0.29103205860E+01  0.42797520636E+02  0.42904706225E+02  0.00000000000E+00 0. -1.
         11    1    1    2    0    0 -0.41548882886E+00 -0.63312188165E+00 -0.36776313422E+02  0.36784109384E+02  0.00000000000E+00 0.  1.
        -15    1    1    2    0    0 -0.10511411476E+01  0.13761999937E+01  0.18746147780E+01  0.31097803300E+01  0.17770000000E+01 0. -1.
         15    1    1    2    0    0  0.62041624663E+00  0.21672424739E+01 -0.78958219926E+01  0.84014040612E+01  0.17770000000E+01 0.  1.
</event>
<event>
 6    1  0.3691007E-002  0.4666683E+02  0.7546771E-02  0.1312961E+00
        -11   -1    0    0    0    0  0.00000000000E+00  0.00000000000E+00  0.45600000000E+02  0.45600000000E+02  0.00000000000E+00 0. -1.
         11   -1    0    0    0    0 -0.00000000000E+00 -0.00000000000E+00 -0.45600000000E+02  0.45600000000E+02  0.00000000000E+00 0.  1.
        -11    1    1    2    0    0 -0.74231138841E+00 -0.86014747907E-01  0.30293229933E+02  0.30302445521E+02  0.00000000000E+00 0. -1.
         11    1    1    2    0    0 -0.32730426897E+00  0.89101562984E+00 -0.44523053991E+02  0.44533171610E+02  0.00000000000E+00 0.  1.
        -15    1    1    2    0    0  0.26247927426E+01  0.41142090021E+00  0.18297870733E+01  0.36830223774E+01  0.17770000000E+01 0. -1.
         15    1    1    2    0    0 -0.15551770852E+01 -0.12164217821E+01  0.12400036984E+02  0.12681360492E+02  0.17770000000E+01 0.  1.
</event>
<event>
 6    1  0.3691007E-002  0.3438802E+02  0.7546771E-02  0.1384339E+00
        -11   -1    0    0    0    0  0.00000000000E+00  0.00000000000E+00  0.45600000000E+02  0.45600000000E+02  0.00000000000E+00 0. -1.
         11   -1    0    0    0    0 -0.00000000000E+00 -0.00000000000E+00 -0.45600000000E+02  0.45600000000E+02  0.00000000000E+00 0.  1.
        -11    1    1    2    0    0  0.23977917577E+01  0.20041041877E+01  0.39827422184E+02  0.39949836004E+02  0.00000000000E+00 0. -1.
         11    1    1    2    0    0 -0.28223551132E+01 -0.73228407982E+00 -0.11596689862E+02  0.11957639571E+02  0.00000000000E+00 0.  1.
        -15    1    1    2    0    0 -0.35675641409E+01  0.66974747481E+01 -0.29134574458E+02  0.30158992684E+02  0.17770000000E+01 0.  1.
         15    1    1    2    0    0  0.39921274965E+01 -0.79692948560E+01  0.90384213566E+00  0.91335317406E+01  0.17770000000E+01 0. -1.
</event>
<event>
 6    1  0.3691007E-002  0.4592592E+02  0.7546771E-02  0.1316515E+00
        -11   -1    0    0    0    0  0.00000000000E+00  0.00000000000E+00  0.45600000000E+02  0.45600000000E+02  0.00000000000E+00 0. -1.
         11   -1    0    0    0    0 -0.00000000000E+00 -0.00000000000E+00 -0.45600000000E+02  0.45600000000E+02  0.00000000000E+00 0. -1.
        -11    1    1    2    0    0  0.56022127484E+00  0.99340392507E-02  0.21893126649E+02  0.21900295455E+02  0.00000000000E+00 0. -1.
         11    1    1    2    0    0  0.31664636385E-01  0.75463848521E+00 -0.45267776300E+02  0.45274077054E+02  0.00000000000E+00 0. -1.
        -15    1    1    2    0    0  0.16362822693E+01  0.31547943252E+00  0.12319244297E+02  0.12557804585E+02  0.17770000000E+01 0. -1.
         15    1    1    2    0    0 -0.22281681805E+01 -0.10800519570E+01  0.11055405355E+02  0.11467822907E+02  0.17770000000E+01 0.  1.
</event>
<event>
 6    1  0.3691007E-002  0.4692015E+02  0.7546771E-02  0.1311763E+00
        -11   -1    0    0    0    0  0.00000000000E+00  0.00000000000E+00  0.45600000000E+02  0.45600000000E+02  0.00000000000E+00 0.  1.
         11   -1    0    0    0    0 -0.00000000000E+00 -0.00000000000E+00 -0.45600000000E+02  0.45600000000E+02  0.00000000000E+00 0.  1.
        -11    1    1    2    0    0 -0.70548939369E+00  0.13773749033E-01  0.34275351375E+02  0.34282613915E+02  0.00000000000E+00 0.  1.
         11    1    1    2    0    0  0.85001419980E+00 -0.20458212004E+00 -0.44271221025E+02  0.44279853083E+02  0.00000000000E+00 0.  1.
        -15    1    1    2    0    0  0.22911365945E+01  0.24188473242E+01  0.35608831307E+01  0.51901586626E+01  0.17770000000E+01 0. -1.
         15    1    1    2    0    0 -0.24356614006E+01 -0.22280389532E+01  0.64349865198E+01  0.74473743390E+01  0.17770000000E+01 0.  1.
</event>
<event>
 6    1  0.3691007E-002  0.5256988E+02  0.7546771E-02  0.1287119E+00
        -11   -1    0    0    0    0  0.00000000000E+00  0.00000000000E+00  0.45600000000E+02  0.45600000000E+02  0.00000000000E+00 0. -1.
         11   -1    0    0    0    0 -0.00000000000E+00 -0.00000000000E+00 -0.45600000000E+02  0.45600000000E+02  0.00000000000E+00 0. -1.
        -11    1    1    2    0    0  0.11250325561E+01 -0.15904337259E+00  0.29228683373E+02  0.29250759387E+02  0.00000000000E+00 0. -1.
         11    1    1    2    0    0 -0.16486569101E+00 -0.12042859123E+01 -0.38610988742E+02  0.38630116967E+02  0.00000000000E+00 0. -1.
        -15    1    1    2    0    0  0.27166265251E+00  0.17046266328E+01  0.16081588302E+02  0.16271286485E+02  0.17770000000E+01 0. -1.
         15    1    1    2    0    0 -0.12318295176E+01 -0.34129734788E+00 -0.66992829327E+01  0.70478371613E+01  0.17770000000E+01 0.  1.
</event>
<event>
 6    1  0.3691007E-002  0.4722462E+02  0.7546771E-02  0.1310335E+00
        -11   -1    0    0    0    0  0.00000000000E+00  0.00000000000E+00  0.45600000000E+02  0.45600000000E+02  0.00000000000E+00 0.  1.
         11   -1    0    0    0    0 -0.00000000000E+00 -0.00000000000E+00 -0.45600000000E+02  0.45600000000E+02  0.00000000000E+00 0. -1.
        -11    1    1    2    0    0  0.27998134270E+01 -0.15928004968E+01  0.43857249382E+02  0.43975382795E+02  0.00000000000E+00 0.  1.
         11    1    1    2    0    0 -0.15195963958E+01  0.21183072369E-01 -0.42537632033E+02  0.42564771360E+02  0.00000000000E+00 0. -1.
        -15    1    1    2    0    0 -0.65860212159E+00  0.11982631636E+01 -0.15515201845E+01  0.27266344175E+01  0.17770000000E+01 0.  1.
         15    1    1    2    0    0 -0.62161490960E+00  0.37335426083E+00  0.23190283566E+00  0.19332114279E+01  0.17770000000E+01 0. -1.
</event>
<event>
 6    1  0.3691007E-002  0.5038352E+02  0.7546771E-02  0.1296215E+00
        -11   -1    0    0    0    0  0.00000000000E+00  0.00000000000E+00  0.45600000000E+02  0.45600000000E+02  0.00000000000E+00 0.  1.
         11   -1    0    0    0    0 -0.00000000000E+00 -0.00000000000E+00 -0.45600000000E+02  0.45600000000E+02  0.00000000000E+00 0.  1.
        -11    1    1    2    0    0 -0.28665547789E+01  0.42788304708E+01  0.40490243915E+02  0.40816484155E+02  0.00000000000E+00 0.  1.
         11    1    1    2    0    0  0.27379390957E+00  0.16040020533E+01 -0.30265607662E+02  0.30309318581E+02  0.00000000000E+00 0.  1.
        -15    1    1    2    0    0  0.36793285880E+00 -0.54229562238E+00 -0.13196504204E+02  0.13331725745E+02  0.17770000000E+01 0.  1.
         15    1    1    2    0    0  0.22248280105E+01 -0.53405369018E+01  0.29718679504E+01  0.67424715194E+01  0.17770000000E+01 0.  1.
</event>
<event>
 6    1  0.3691007E-002  0.4700300E+02  0.7546771E-02  0.1311374E+00
        -11   -1    0    0    0    0  0.00000000000E+00  0.00000000000E+00  0.45600000000E+02  0.45600000000E+02  0.00000000000E+00 0. -1.
         11   -1    0    0    0    0 -0.00000000000E+00 -0.00000000000E+00 -0.45600000000E+02  0.45600000000E+02  0.00000000000E+00 0.  1.
        -11    1    1    2    0    0 -0.24140005167E+01 -0.26883601325E+01  0.44049061538E+02  0.44196996516E+02  0.00000000000E+00 0. -1.
         11    1    1    2    0    0 -0.15889295536E+01  0.15324991578E+01 -0.35268544873E+02  0.35337565115E+02  0.00000000000E+00 0.  1.
        -15    1    1    2    0    0  0.40528233726E+01  0.27317692982E+01 -0.68726646643E+01  0.86185375428E+01  0.17770000000E+01 0. -1.
         15    1    1    2    0    0 -0.49893302315E-01 -0.15759083235E+01 -0.19078520007E+01  0.30469008258E+01  0.17770000000E+01 0.  1.
</event>
<event>
 6    1  0.3691007E-002  0.4881021E+02  0.7546771E-02  0.1303094E+00
        -11   -1    0    0    0    0  0.00000000000E+00  0.00000000000E+00  0.45600000000E+02  0.45600000000E+02  0.00000000000E+00 0. -1.
         11   -1    0    0    0    0 -0.00000000000E+00 -0.00000000000E+00 -0.45600000000E+02  0.45600000000E+02  0.00000000000E+00 0. -1.
        -11    1    1    2    0    0  0.80204819719E+00 -0.13659467343E+01  0.40109608031E+02  0.40140873785E+02  0.00000000000E+00 0. -1.
         11    1    1    2    0    0 -0.10071309560E+01 -0.18067601900E+01 -0.42339293055E+02  0.42389791596E+02  0.00000000000E+00 0. -1.
        -15    1    1    2    0    0 -0.15136713881E+01  0.47099329876E+01  0.49352801972E+00  0.52797697607E+01  0.17770000000E+01 0.  1.
         15    1    1    2    0    0  0.17187541470E+01 -0.15372260634E+01  0.17361570039E+01  0.33895648585E+01  0.17770000000E+01 0. -1.
</event>
<event>
 6    1  0.3691007E-002  0.4596875E+02  0.7546771E-02  0.1316307E+00
        -11   -1    0    0    0    0  0.00000000000E+00  0.00000000000E+00  0.45600000000E+02  0.45600000000E+02  0.00000000000E+00 0. -1.
         11   -1    0    0    0    0 -0.00000000000E+00 -0.00000000000E+00 -0.45600000000E+02  0.45600000000E+02  0.00000000000E+00 0. -1.
        -11    1    1    2    0    0  0.65879969494E+00 -0.22709422681E+00  0.19640622195E+02  0.19652980156E+02  0.00000000000E+00 0. -1.
         11    1    1    2    0    0  0.61763289520E+00 -0.66858044743E+00 -0.45222087026E+02  0.45231246116E+02  0.00000000000E+00 0. -1.
        -15    1    1    2    0    0 -0.56694281342E+00 -0.51667607881E+00  0.21537903921E+02  0.21624694509E+02  0.17770000000E+01 0. -1.
         15    1    1    2    0    0 -0.70948977673E+00  0.14123507531E+01  0.40435609108E+01  0.46910792183E+01  0.17770000000E+01 0. -1.
</event>
<event>
 6    1  0.3691007E-002  0.4765061E+02  0.7546771E-02  0.1308358E+00
        -11   -1    0    0    0    0  0.00000000000E+00  0.00000000000E+00  0.45600000000E+02  0.45600000000E+02  0.00000000000E+00 0. -1.
         11   -1    0    0    0    0 -0.00000000000E+00 -0.00000000000E+00 -0.45600000000E+02  0.45600000000E+02  0.00000000000E+00 0. -1.
        -11    1    1    2    0    0 -0.23914846630E+01  0.11531073473E+01  0.32521237501E+02  0.32629430643E+02  0.00000000000E+00 0. -1.
         11    1    1    2    0    0  0.28407734714E-01 -0.14480118312E+01 -0.43525303128E+02  0.43549392162E+02  0.00000000000E+00 0. -1.
        -15    1    1    2    0    0  0.82631581817E+00 -0.58627331700E-01  0.12203359021E+02  0.12359851755E+02  0.17770000000E+01 0.  1.
         15    1    1    2    0    0  0.15367611101E+01  0.35353181562E+00 -0.11992933943E+01  0.26613254404E+01  0.17770000000E+01 0. -1.
</event>
<event>
 6    1  0.3691007E-002  0.4932386E+02  0.7546771E-02  0.1300816E+00
        -11   -1    0    0    0    0  0.00000000000E+00  0.00000000000E+00  0.45600000000E+02  0.45600000000E+02  0.00000000000E+00 0. -1.
         11   -1    0    0    0    0 -0.00000000000E+00 -0.00000000000E+00 -0.45600000000E+02  0.45600000000E+02  0.00000000000E+00 0. -1.
        -11    1    1    2    0    0 -0.11007456095E+01 -0.35210515459E+01  0.41713328151E+02  0.41876141063E+02  0.00000000000E+00 0. -1.
         11    1    1    2    0    0 -0.61433373764E+00  0.73499104553E+00 -0.30992718819E+02  0.31007519048E+02  0.00000000000E+00 0. -1.
        -15    1    1    2    0    0  0.37554952381E+01  0.25649963210E+01 -0.13545373784E+02  0.14398535709E+02  0.17770000000E+01 0.  1.
         15    1    1    2    0    0 -0.20404158910E+01  0.22106417940E+00  0.28247644520E+01  0.39178041795E+01  0.17770000000E+01 0. -1.
</event>
<event>
 6    1  0.3691007E-002  0.4772587E+02  0.7546771E-02  0.1308011E+00
        -11   -1    0    0    0    0  0.00000000000E+00  0.00000000000E+00  0.45600000000E+02  0.45600000000E+02  0.00000000000E+00 0.  1.
         11   -1    0    0    0    0 -0.00000000000E+00 -0.00000000000E+00 -0.45600000000E+02  0.45600000000E+02  0.00000000000E+00 0.  1.
        -11    1    1    2    0    0 -0.56591420353E+00 -0.43667079124E+00  0.43468255141E+02  0.43474131909E+02  0.00000000000E+00 0.  1.
         11    1    1    2    0    0 -0.50218563795E+00  0.54674141857E+01 -0.26097402039E+02  0.26668693284E+02  0.00000000000E+00 0.  1.
        -15    1    1    2    0    0  0.16968226700E+01 -0.80040892058E+01 -0.12593726267E+02  0.15122973301E+02  0.17770000000E+01 0.  1.
         15    1    1    2    0    0 -0.62872282855E+00  0.29733458113E+01 -0.47771268349E+01  0.59342015053E+01  0.17770000000E+01 0. -1.
</event>
<event>
 6    1  0.3691007E-002  0.4696208E+02  0.7546771E-02  0.1311566E+00
        -11   -1    0    0    0    0  0.00000000000E+00  0.00000000000E+00  0.45600000000E+02  0.45600000000E+02  0.00000000000E+00 0.  1.
         11   -1    0    0    0    0 -0.00000000000E+00 -0.00000000000E+00 -0.45600000000E+02  0.45600000000E+02  0.00000000000E+00 0. -1.
        -11    1    1    2    0    0  0.40482460306E+00  0.19819471383E+01  0.32689272407E+02  0.32751801903E+02  0.00000000000E+00 0.  1.
         11    1    1    2    0    0  0.76080919685E+00  0.50212479404E+01 -0.43945443252E+02  0.44237922014E+02  0.00000000000E+00 0. -1.
        -15    1    1    2    0    0 -0.45356092986E+00 -0.86964047459E+00  0.14815646057E+01  0.25129175778E+01  0.17770000000E+01 0. -1.
         15    1    1    2    0    0 -0.71207287005E+00 -0.61335546040E+01  0.97746062392E+01  0.11697358505E+02  0.17770000000E+01 0.  1.
</event>
<event>
 6    1  0.3691007E-002  0.4659551E+02  0.7546771E-02  0.1313300E+00
        -11   -1    0    0    0    0  0.00000000000E+00  0.00000000000E+00  0.45600000000E+02  0.45600000000E+02  0.00000000000E+00 0.  1.
         11   -1    0    0    0    0 -0.00000000000E+00 -0.00000000000E+00 -0.45600000000E+02  0.45600000000E+02  0.00000000000E+00 0. -1.
        -11    1    1    2    0    0 -0.29871061476E+01 -0.18633857679E+01  0.44465330469E+02  0.44604491067E+02  0.00000000000E+00 0.  1.
         11    1    1    2    0    0  0.87367041282E+00  0.88809793562E+00 -0.38528592600E+02  0.38548728457E+02  0.00000000000E+00 0. -1.
        -15    1    1    2    0    0  0.55166752600E+00 -0.11981493968E+01 -0.22325916067E+01  0.31435796982E+01  0.17770000000E+01 0. -1.
         15    1    1    2    0    0  0.15617682088E+01  0.21734372291E+01 -0.37041462624E+01  0.49032007770E+01  0.17770000000E+01 0.  1.
</event>
<event>
 6    1  0.3691007E-002  0.4802093E+02  0.7546771E-02  0.1306659E+00
        -11   -1    0    0    0    0  0.00000000000E+00  0.00000000000E+00  0.45600000000E+02  0.45600000000E+02  0.00000000000E+00 0.  1.
         11   -1    0    0    0    0 -0.00000000000E+00 -0.00000000000E+00 -0.45600000000E+02  0.45600000000E+02  0.00000000000E+00 0.  1.
        -11    1    1    2    0    0 -0.34800877844E+00 -0.13900392639E+01  0.41260701206E+02  0.41285575971E+02  0.00000000000E+00 0.  1.
         11    1    1    2    0    0  0.55296417567E+00 -0.74150279513E+00 -0.43169159386E+02  0.43179068053E+02  0.00000000000E+00 0.  1.
        -15    1    1    2    0    0  0.24457207630E+00  0.35563338587E+01  0.48600965453E+00  0.40126375863E+01  0.17770000000E+01 0. -1.
         15    1    1    2    0    0 -0.44952747353E+00 -0.14247917997E+01  0.14224485263E+01  0.27227183901E+01  0.17770000000E+01 0.  1.
</event>
<event>
 6    1  0.3691007E-002  0.4635083E+02  0.7546771E-02  0.1314467E+00
        -11   -1    0    0    0    0  0.00000000000E+00  0.00000000000E+00  0.45600000000E+02  0.45600000000E+02  0.00000000000E+00 0. -1.
         11   -1    0    0    0    0 -0.00000000000E+00 -0.00000000000E+00 -0.45600000000E+02  0.45600000000E+02  0.00000000000E+00 0.  1.
        -11    1    1    2    0    0  0.28981110562E+01 -0.12499259893E+01  0.44737979892E+02  0.44849171759E+02  0.00000000000E+00 0. -1.
         11    1    1    2    0    0 -0.17771433226E+00  0.99248982501E+00 -0.33381949102E+02  0.33397172699E+02  0.00000000000E+00 0.  1.
        -15    1    1    2    0    0 -0.29606637642E+01  0.12962904421E+01 -0.46525904045E+01  0.59371900177E+01  0.17770000000E+01 0.  1.
         15    1    1    2    0    0  0.24026704024E+00 -0.10388542779E+01 -0.67034403849E+01  0.70164655244E+01  0.17770000000E+01 0. -1.
</event>
<event>
 6    1  0.3691007E-002  0.4743715E+02  0.7546771E-02  0.1309346E+00
        -11   -1    0    0    0    0  0.00000000000E+00  0.00000000000E+00  0.45600000000E+02  0.45600000000E+02  0.00000000000E+00 0.  1.
         11   -1    0    0    0    0 -0.00000000000E+00 -0.00000000000E+00 -0.45600000000E+02  0.45600000000E+02  0.00000000000E+00 0. -1.
        -11    1    1    2    0    0  0.24949864935E+01  0.45540858835E+00  0.43689294834E+02  0.43762847687E+02  0.00000000000E+00 0.  1.
         11    1    1    2    0    0 -0.61584971730E+00  0.18067546690E+01 -0.40108438184E+02  0.40153834772E+02  0.00000000000E+00 0. -1.
        -15    1    1    2    0    0 -0.23064159145E+01 -0.31088910015E+01 -0.29169341693E+01  0.51624598379E+01  0.17770000000E+01 0.  1.
         15    1    1    2    0    0  0.42727913831E+00  0.84672774416E+00 -0.66392248086E+00  0.21208577028E+01  0.17770000000E+01 0.  1.
</event>
<event>
 6    1  0.3691007E-002  0.4692160E+02  0.7546771E-02  0.1311757E+00
        -11   -1    0    0    0    0  0.00000000000E+00  0.00000000000E+00  0.45600000000E+02  0.45600000000E+02  0.00000000000E+00 0. -1.
         11   -1    0    0    0    0 -0.00000000000E+00 -0.00000000000E+00 -0.45600000000E+02  0.45600000000E+02  0.00000000000E+00 0. -1.
        -11    1    1    2    0    0  0.82704958012E+00  0.55693683111E+00  0.39033968214E+02  0.39046701066E+02  0.00000000000E+00 0. -1.
         11    1    1    2    0    0  0.38139106863E+00 -0.52921716550E+00 -0.44273593729E+02  0.44278399154E+02  0.00000000000E+00 0. -1.
        -15    1    1    2    0    0  0.96957234153E+00  0.12747921090E+01  0.92865461005E+00  0.25661827354E+01  0.17770000000E+01 0. -1.
         15    1    1    2    0    0 -0.21780129903E+01 -0.13025117746E+01  0.43109709056E+01  0.53087170444E+01  0.17770000000E+01 0.  1.
</event>
<event>
 6    1  0.3691007E-002  0.4641308E+02  0.7546771E-02  0.1314169E+00
        -11   -1    0    0    0    0  0.00000000000E+00  0.00000000000E+00  0.45600000000E+02  0.45600000000E+02  0.00000000000E+00 0. -1.
         11   -1    0    0    0    0 -0.00000000000E+00 -0.00000000000E+00 -0.45600000000E+02  0.45600000000E+02  0.00000000000E+00 0.  1.
        -11    1    1    2    0    0  0.39788142618E+00 -0.27067664432E+01  0.15469661732E+02  0.15709720823E+02  0.00000000000E+00 0. -1.
         11    1    1    2    0    0  0.53097374217E+00  0.31389902291E+00 -0.44782667438E+02  0.44786915149E+02  0.00000000000E+00 0.  1.
        -15    1    1    2    0    0 -0.90777431282E+00  0.30062449270E+01  0.42720369503E+01  0.55919219835E+01  0.17770000000E+01 0.  1.
         15    1    1    2    0    0 -0.21080855530E-01 -0.61337750668E+00  0.25040968755E+02  0.25111442045E+02  0.17770000000E+01 0. -1.
</event>
<event>
 6    1  0.3691007E-002  0.4334466E+02  0.7546771E-02  0.1329525E+00
        -11   -1    0    0    0    0  0.00000000000E+00  0.00000000000E+00  0.45600000000E+02  0.45600000000E+02  0.00000000000E+00 0. -1.
         11   -1    0    0    0    0 -0.00000000000E+00 -0.00000000000E+00 -0.45600000000E+02  0.45600000000E+02  0.00000000000E+00 0. -1.
        -11    1    1    2    0    0  0.23214533160E+01 -0.27206575465E+01  0.43341119129E+02  0.43488432144E+02  0.00000000000E+00 0. -1.
         11    1    1    2    0    0 -0.11215062544E+01  0.27016377746E+01 -0.43110366244E+02  0.43209493178E+02  0.00000000000E+00 0. -1.
        -15    1    1    2    0    0 -0.95635228011E-01 -0.11289088946E+01 -0.18009186091E+00  0.21151225656E+01  0.17770000000E+01 0.  1.
         15    1    1    2    0    0 -0.11043118336E+01  0.11479286664E+01 -0.50661023689E-01  0.23869521127E+01  0.17770000000E+01 0. -1.
</event>
<event>
 6    1  0.3691007E-002  0.3845809E+02  0.7546771E-02  0.1357283E+00
        -11   -1    0    0    0    0  0.00000000000E+00  0.00000000000E+00  0.45600000000E+02  0.45600000000E+02  0.00000000000E+00 0.  1.
         11   -1    0    0    0    0 -0.00000000000E+00 -0.00000000000E+00 -0.45600000000E+02  0.45600000000E+02  0.00000000000E+00 0. -1.
        -11    1    1    2    0    0  0.17539038173E+01  0.28751107976E+00  0.80580291346E+01  0.82517073843E+01  0.00000000000E+00 0.  1.
         11    1    1    2    0    0  0.32243572210E+00  0.67092449064E+00 -0.42582033413E+02  0.42588539234E+02  0.00000000000E+00 0. -1.
        -15    1    1    2    0    0  0.30259415315E+01  0.43241597118E+00  0.34600033445E+02  0.34780214909E+02  0.17770000000E+01 0.  1.
         15    1    1    2    0    0 -0.51022810709E+01 -0.13908515416E+01 -0.76029166753E-01  0.55795384730E+01  0.17770000000E+01 0. -1.
</event>
<event>
 6    1  0.3691007E-002  0.4947881E+02  0.7546771E-02  0.1300135E+00
        -11   -1    0    0    0    0  0.00000000000E+00  0.00000000000E+00  0.45600000000E+02  0.45600000000E+02  0.00000000000E+00 0. -1.
         11   -1    0    0    0    0 -0.00000000000E+00 -0.00000000000E+00 -0.45600000000E+02  0.45600000000E+02  0.00000000000E+00 0.  1.
        -11    1    1    2    0    0 -0.32639844401E+01 -0.18494094752E+01  0.37146582444E+02  0.37335539331E+02  0.00000000000E+00 0. -1.
         11    1    1    2    0    0 -0.28604635803E+00 -0.14531231748E+01 -0.41694893609E+02  0.41721188173E+02  0.00000000000E+00 0.  1.
        -15    1    1    2    0    0  0.14168559961E+01 -0.20890466712E+01 -0.16258443303E+01  0.34889390500E+01  0.17770000000E+01 0. -1.
         15    1    1    2    0    0  0.21331748020E+01  0.53915793213E+01  0.61741554957E+01  0.86543334462E+01  0.17770000000E+01 0. -1.
</event>
<event>
 6    1  0.3691007E-002  0.4646597E+02  0.7546771E-02  0.1313917E+00
        -11   -1    0    0    0    0  0.00000000000E+00  0.00000000000E+00  0.45600000000E+02  0.45600000000E+02  0.00000000000E+00 0. -1.
         11   -1    0    0    0    0 -0.00000000000E+00 -0.00000000000E+00 -0.45600000000E+02  0.45600000000E+02  0.00000000000E+00 0. -1.
        -11    1    1    2    0    0  0.91650544926E+00  0.60991906479E+00  0.37149309836E+02  0.37165618584E+02  0.00000000000E+00 0. -1.
         11    1    1    2    0    0 -0.49315701708E+00  0.37909659984E+00 -0.44729705408E+02  0.44734030267E+02  0.00000000000E+00 0. -1.
        -15    1    1    2    0    0  0.70898636447E+00 -0.21473225447E+01  0.31930942699E+01  0.42973521839E+01  0.17770000000E+01 0.  1.
         15    1    1    2    0    0 -0.11323347967E+01  0.11583068801E+01  0.43873013023E+01  0.50029989644E+01  0.17770000000E+01 0.  1.
</event>
<event>
 6    1  0.4081681E-002  0.4694399E+02  0.7546771E-02  0.1311651E+00
        -11   -1    0    0    0    0  0.00000000000E+00  0.00000000000E+00  0.45600000000E+02  0.45600000000E+02  0.00000000000E+00 0.  1.
         11   -1    0    0    0    0 -0.00000000000E+00 -0.00000000000E+00 -0.45600000000E+02  0.45600000000E+02  0.00000000000E+00 0.  1.
        -11    1    1    2    0    0 -0.43661351624E-01 -0.15339293880E+01  0.44229394983E+02  0.44256007798E+02  0.00000000000E+00 0.  1.
         11    1    1    2    0    0 -0.21187451735E+01  0.20123962140E+01 -0.26991715674E+02  0.27149429730E+02  0.00000000000E+00 0.  1.
        -15    1    1    2    0    0  0.26242291974E+00  0.19541748138E+01 -0.52392338969E+00  0.27055294694E+01  0.17770000000E+01 0.  1.
         15    1    1    2    0    0  0.18999836054E+01 -0.24326416398E+01 -0.16713755919E+02  0.17089033003E+02  0.17770000000E+01 0.  1.
</event>
<event>
 6    1  0.3691007E-002  0.4753029E+02  0.7546771E-02  0.1308914E+00
        -11   -1    0    0    0    0  0.00000000000E+00  0.00000000000E+00  0.45600000000E+02  0.45600000000E+02  0.00000000000E+00 0. -1.
         11   -1    0    0    0    0 -0.00000000000E+00 -0.00000000000E+00 -0.45600000000E+02  0.45600000000E+02  0.00000000000E+00 0.  1.
        -11    1    1    2    0    0 -0.59469104425E+00  0.13624280668E+01  0.43644395620E+02  0.43669705022E+02  0.00000000000E+00 0. -1.
         11    1    1    2    0    0  0.18888725491E-01  0.54284588366E+00 -0.15475341076E+02  0.15484870677E+02  0.00000000000E+00 0.  1.
        -15    1    1    2    0    0  0.71801836347E+01 -0.35440265008E+01 -0.13961331979E+02  0.16192334004E+02  0.17770000000E+01 0.  1.
         15    1    1    2    0    0 -0.66043813160E+01  0.16387525503E+01 -0.14207722565E+02  0.15853090298E+02  0.17770000000E+01 0.  1.
</event>
<event>
 6    1  0.3691007E-002  0.5307553E+02  0.7546771E-02  0.1285087E+00
        -11   -1    0    0    0    0  0.00000000000E+00  0.00000000000E+00  0.45600000000E+02  0.45600000000E+02  0.00000000000E+00 0.  1.
         11   -1    0    0    0    0 -0.00000000000E+00 -0.00000000000E+00 -0.45600000000E+02  0.45600000000E+02  0.00000000000E+00 0.  1.
        -11    1    1    2    0    0  0.56354963491E+00  0.11135703941E+01  0.38104039223E+02  0.38124472879E+02  0.00000000000E+00 0.  1.
         11    1    1    2    0    0 -0.11911503259E+01  0.29272179708E+01 -0.33369292188E+02  0.33518608343E+02  0.00000000000E+00 0.  1.
        -15    1    1    2    0    0 -0.14005444262E+01 -0.43615498138E+01  0.64154238674E+01  0.80808436358E+01  0.17770000000E+01 0.  1.
         15    1    1    2    0    0  0.20281451172E+01  0.32076144889E+00 -0.11150170902E+02  0.11476075142E+02  0.17770000000E+01 0. -1.
</event>
<event>
 6    1  0.3691007E-002  0.3627674E+02  0.7546771E-02  0.1371270E+00
        -11   -1    0    0    0    0  0.00000000000E+00  0.00000000000E+00  0.45600000000E+02  0.45600000000E+02  0.00000000000E+00 0.  1.
         11   -1    0    0    0    0 -0.00000000000E+00 -0.00000000000E+00 -0.45600000000E+02  0.45600000000E+02  0.00000000000E+00 0.  1.
        -11    1    1    2    0    0 -0.33958605029E+01 -0.14455326016E+01  0.39247825298E+02  0.39420974413E+02  0.00000000000E+00 0.  1.
         11    1    1    2    0    0 -0.14222998324E+01 -0.44887196968E+01 -0.33435308875E+02  0.33765239831E+02  0.00000000000E+00 0.  1.
        -15    1    1    2    0    0  0.30577684763E+01  0.10421003776E+02 -0.11293849473E+01  0.11062572355E+02  0.17770000000E+01 0.  1.
         15    1    1    2    0    0  0.17603918590E+01 -0.44867514774E+01 -0.46831314760E+01  0.69512134005E+01  0.17770000000E+01 0. -1.
</event>
<event>
 6    1  0.3691007E-002  0.4800972E+02  0.7546771E-02  0.1306710E+00
        -11   -1    0    0    0    0  0.00000000000E+00  0.00000000000E+00  0.45600000000E+02  0.45600000000E+02  0.00000000000E+00 0. -1.
         11   -1    0    0    0    0 -0.00000000000E+00 -0.00000000000E+00 -0.45600000000E+02  0.45600000000E+02  0.00000000000E+00 0. -1.
        -11    1    1    2    0    0 -0.20602519672E+00  0.14521492327E+01  0.37883668348E+02  0.37912049685E+02  0.00000000000E+00 0. -1.
         11    1    1    2    0    0 -0.14537827214E+01  0.20575719556E+01 -0.43116742828E+02  0.43190283614E+02  0.00000000000E+00 0. -1.
        -15    1    1    2    0    0  0.22798669530E+01  0.10489367149E+01  0.24768288113E+00  0.30849857965E+01  0.17770000000E+01 0. -1.
         15    1    1    2    0    0 -0.62005903481E+00 -0.45586579031E+01  0.49853915987E+01  0.70126809051E+01  0.17770000000E+01 0.  1.
</event>
<event>
 6    1  0.3691007E-002  0.4645614E+02  0.7546771E-02  0.1313964E+00
        -11   -1    0    0    0    0  0.00000000000E+00  0.00000000000E+00  0.45600000000E+02  0.45600000000E+02  0.00000000000E+00 0.  1.
         11   -1    0    0    0    0 -0.00000000000E+00 -0.00000000000E+00 -0.45600000000E+02  0.45600000000E+02  0.00000000000E+00 0.  1.
        -11    1    1    2    0    0  0.11449292676E+01  0.17364504716E+01  0.44695489668E+02  0.44743859019E+02  0.00000000000E+00 0.  1.
         11    1    1    2    0    0 -0.48710539976E+00 -0.10993445917E+01 -0.36544859321E+02  0.36564635551E+02  0.00000000000E+00 0.  1.
        -15    1    1    2    0    0  0.32881303107E+00 -0.20226363415E+01 -0.23422455690E+01  0.35837158208E+01  0.17770000000E+01 0.  1.
         15    1    1    2    0    0 -0.98663689889E+00  0.13855304616E+01 -0.58083847778E+01  0.63077896095E+01  0.17770000000E+01 0. -1.
</event>
<event>
 6    1  0.3691007E-002  0.4591993E+02  0.7546771E-02  0.1316544E+00
        -11   -1    0    0    0    0  0.00000000000E+00  0.00000000000E+00  0.45600000000E+02  0.45600000000E+02  0.00000000000E+00 0.  1.
         11   -1    0    0    0    0 -0.00000000000E+00 -0.00000000000E+00 -0.45600000000E+02  0.45600000000E+02  0.00000000000E+00 0.  1.
        -11    1    1    2    0    0 -0.70820798170E+00 -0.65981427434E+00  0.60018496400E+01  0.60794006714E+01  0.00000000000E+00 0.  1.
         11    1    1    2    0    0  0.12149322173E+01 -0.27620131380E+00 -0.45262920341E+02  0.45280065209E+02  0.00000000000E+00 0.  1.
        -15    1    1    2    0    0 -0.96530901616E+00 -0.10264794238E+01  0.51922203406E+01  0.56658946839E+01  0.17770000000E+01 0.  1.
         15    1    1    2    0    0  0.45858478056E+00  0.19624950120E+01  0.34068850361E+02  0.34174639436E+02  0.17770000000E+01 0.  1.
</event>
<event>
 6    1  0.3691007E-002  0.4593393E+02  0.7546771E-02  0.1316476E+00
        -11   -1    0    0    0    0  0.00000000000E+00  0.00000000000E+00  0.45600000000E+02  0.45600000000E+02  0.00000000000E+00 0.  1.
         11   -1    0    0    0    0 -0.00000000000E+00 -0.00000000000E+00 -0.45600000000E+02  0.45600000000E+02  0.00000000000E+00 0. -1.
        -11    1    1    2    0    0  0.57139495228E+00 -0.15089107470E+00  0.14907167824E+02  0.14918877734E+02  0.00000000000E+00 0.  1.
         11    1    1    2    0    0  0.22045121549E+00 -0.67522856206E+00 -0.45260499960E+02  0.45266073267E+02  0.00000000000E+00 0. -1.
        -15    1    1    2    0    0 -0.28861371982E-01  0.11470896767E+01  0.34949622790E+01  0.40852341471E+01  0.17770000000E+01 0. -1.
         15    1    1    2    0    0 -0.76298479579E+00 -0.32097003994E+00  0.26858369858E+02  0.26929814852E+02  0.17770000000E+01 0.  1.
</event>
<event>
 6    1  0.3691007E-002  0.4874688E+02  0.7546771E-02  0.1303377E+00
        -11   -1    0    0    0    0  0.00000000000E+00  0.00000000000E+00  0.45600000000E+02  0.45600000000E+02  0.00000000000E+00 0.  1.
         11   -1    0    0    0    0 -0.00000000000E+00 -0.00000000000E+00 -0.45600000000E+02  0.45600000000E+02  0.00000000000E+00 0. -1.
        -11    1    1    2    0    0 -0.81299428319E+00 -0.97404715816E+00  0.26410826637E+02  0.26441283842E+02  0.00000000000E+00 0.  1.
         11    1    1    2    0    0 -0.64524704862E+00  0.38342833240E+00 -0.42446482170E+02  0.42453117785E+02  0.00000000000E+00 0. -1.
        -15    1    1    2    0    0  0.41562647481E+01  0.52685693112E+01  0.20963353510E+01  0.72515315725E+01  0.17770000000E+01 0. -1.
         15    1    1    2    0    0 -0.26980234163E+01 -0.46779504855E+01  0.13939320182E+02  0.15054066801E+02  0.17770000000E+01 0.  1.
</event>
<event>
 6    1  0.3691007E-002  0.4792162E+02  0.7546771E-02  0.1307113E+00
        -11   -1    0    0    0    0  0.00000000000E+00  0.00000000000E+00  0.45600000000E+02  0.45600000000E+02  0.00000000000E+00 0.  1.
         11   -1    0    0    0    0 -0.00000000000E+00 -0.00000000000E+00 -0.45600000000E+02  0.45600000000E+02  0.00000000000E+00 0.  1.
        -11    1    1    2    0    0 -0.75675922320E+00 -0.55010412797E+00  0.43268265055E+02  0.43278378666E+02  0.00000000000E+00 0.  1.
         11    1    1    2    0    0  0.79618195495E+00 -0.46306210614E+00 -0.41073460891E+02  0.41083786604E+02  0.00000000000E+00 0.  1.
        -15    1    1    2    0    0  0.23869384691E+01 -0.21155880559E+00 -0.19859209810E+01  0.35838308451E+01  0.17770000000E+01 0.  1.
         15    1    1    2    0    0 -0.24263612008E+01  0.12247250397E+01 -0.20888318305E+00  0.32540038850E+01  0.17770000000E+01 0. -1.
</event>
<event>
 6    1  0.3691007E-002  0.5042382E+02  0.7546771E-02  0.1296042E+00
        -11   -1    0    0    0    0  0.00000000000E+00  0.00000000000E+00  0.45600000000E+02  0.45600000000E+02  0.00000000000E+00 0. -1.
         11   -1    0    0    0    0 -0.00000000000E+00 -0.00000000000E+00 -0.45600000000E+02  0.45600000000E+02  0.00000000000E+00 0.  1.
        -11    1    1    2    0    0 -0.52075008910E+01  0.33339433172E+01  0.40304634671E+02  0.40776179560E+02  0.00000000000E+00 0. -1.
         11    1    1    2    0    0 -0.12020870641E+01 -0.84281725881E+00 -0.20497858979E+02  0.20550366833E+02  0.00000000000E+00 0.  1.
        -15    1    1    2    0    0 -0.46093842309E+01  0.56034335962E+01 -0.27946846148E+01  0.79757684364E+01  0.17770000000E+01 0. -1.
         15    1    1    2    0    0  0.11018972186E+02 -0.80945596545E+01 -0.17012091077E+02  0.21897685171E+02  0.17770000000E+01 0.  1.
</event>
<event>
 6    1  0.3691007E-002  0.4678423E+02  0.7546771E-02  0.1312405E+00
        -11   -1    0    0    0    0  0.00000000000E+00  0.00000000000E+00  0.45600000000E+02  0.45600000000E+02  0.00000000000E+00 0. -1.
         11   -1    0    0    0    0 -0.00000000000E+00 -0.00000000000E+00 -0.45600000000E+02  0.45600000000E+02  0.00000000000E+00 0. -1.
        -11    1    1    2    0    0 -0.41145620406E+01 -0.19571775821E+01  0.32381304842E+02  0.32700291561E+02  0.00000000000E+00 0. -1.
         11    1    1    2    0    0  0.42882849561E+00 -0.14431023916E+01 -0.44390247658E+02  0.44415768883E+02  0.00000000000E+00 0. -1.
        -15    1    1    2    0    0  0.92759649679E+00  0.20665119270E+01  0.89580994616E+01  0.94093667039E+01  0.17770000000E+01 0.  1.
         15    1    1    2    0    0  0.27581370482E+01  0.13337680467E+01  0.30508433539E+01  0.46745728520E+01  0.17770000000E+01 0. -1.
</event>
<event>
 6    1  0.3691007E-002  0.3185257E+02  0.7546771E-02  0.1403513E+00
        -11   -1    0    0    0    0  0.00000000000E+00  0.00000000000E+00  0.45600000000E+02  0.45600000000E+02  0.00000000000E+00 0.  1.
         11   -1    0    0    0    0 -0.00000000000E+00 -0.00000000000E+00 -0.45600000000E+02  0.45600000000E+02  0.00000000000E+00 0. -1.
        -11    1    1    2    0    0 -0.49290293920E+01 -0.10089442051E+02  0.32844364652E+02  0.34710869494E+02  0.00000000000E+00 0.  1.
         11    1    1    2    0    0 -0.51824162095E+01 -0.67320541217E+01 -0.30830347832E+02  0.31979498712E+02  0.00000000000E+00 0. -1.
        -15    1    1    2    0    0  0.11207616796E+02  0.11620677033E+02 -0.63340777031E+01  0.17433561836E+02  0.17770000000E+01 0.  1.
         15    1    1    2    0    0 -0.10961711943E+01  0.52008191395E+01  0.43200608826E+01  0.70760699572E+01  0.17770000000E+01 0. -1.
</event>
<event>
 6    1  0.3691007E-002  0.4583865E+02  0.7546771E-02  0.1316938E+00
        -11   -1    0    0    0    0  0.00000000000E+00  0.00000000000E+00  0.45600000000E+02  0.45600000000E+02  0.00000000000E+00 0.  1.
         11   -1    0    0    0    0 -0.00000000000E+00 -0.00000000000E+00 -0.45600000000E+02  0.45600000000E+02  0.00000000000E+00 0. -1.
        -11    1    1    2    0    0 -0.91496802495E+00  0.73834504146E+00  0.45122836033E+01  0.46629414755E+01  0.00000000000E+00 0.  1.
         11    1    1    2    0    0 -0.11026412265E+01 -0.58960742115E-01 -0.45347903560E+02  0.45361345343E+02  0.00000000000E+00 0. -1.
        -15    1    1    2    0    0  0.24154982280E+01 -0.12854065930E+01  0.29359255938E+02  0.29539982059E+02  0.17770000000E+01 0.  1.
         15    1    1    2    0    0 -0.39788897654E+00  0.60602229365E+00  0.11476364019E+02  0.11635731122E+02  0.17770000000E+01 0. -1.
</event>
<event>
 6    1  0.3691007E-002  0.2227774E+02  0.7546771E-02  0.1500753E+00
        -11   -1    0    0    0    0  0.00000000000E+00  0.00000000000E+00  0.45600000000E+02  0.45600000000E+02  0.00000000000E+00 0. -1.
         11   -1    0    0    0    0 -0.00000000000E+00 -0.00000000000E+00 -0.45600000000E+02  0.45600000000E+02  0.00000000000E+00 0.  1.
        -11    1    1    2    0    0  0.16764616597E+00 -0.13417031865E+01  0.17232518091E+02  0.17285483864E+02  0.00000000000E+00 0. -1.
         11    1    1    2    0    0 -0.23425347743E+02  0.95166841262E+01 -0.50102111137E+00  0.25289626644E+02  0.00000000000E+00 0.  1.
        -15    1    1    2    0    0  0.18433446444E+02 -0.20814982030E+01  0.97058590898E+01  0.21011568534E+02  0.17770000000E+01 0. -1.
         15    1    1    2    0    0  0.48242551326E+01 -0.60934827367E+01 -0.26437356069E+02  0.27613320959E+02  0.17770000000E+01 0.  1.
</event>
<event>
 6    1  0.3691007E-002  0.4710642E+02  0.7546771E-02  0.1310888E+00
        -11   -1    0    0    0    0  0.00000000000E+00  0.00000000000E+00  0.45600000000E+02  0.45600000000E+02  0.00000000000E+00 0.  1.
         11   -1    0    0    0    0 -0.00000000000E+00 -0.00000000000E+00 -0.45600000000E+02  0.45600000000E+02  0.00000000000E+00 0.  1.
        -11    1    1    2    0    0  0.59793821606E+00  0.10847732224E+01  0.44076177585E+02  0.44093578825E+02  0.00000000000E+00 0.  1.
         11    1    1    2    0    0 -0.13612919622E+01  0.12976342995E+01 -0.41163412378E+02  0.41206352534E+02  0.00000000000E+00 0.  1.
        -15    1    1    2    0    0  0.85017597191E+00 -0.13311767944E+01 -0.30046885353E+01  0.38315418613E+01  0.17770000000E+01 0. -1.
         15    1    1    2    0    0 -0.86822225793E-01 -0.10512307276E+01  0.91923327992E-01  0.20685267800E+01  0.17770000000E+01 0.  1.
</event>
<event>
 6    1  0.3691007E-002  0.4776618E+02  0.7546771E-02  0.1307826E+00
        -11   -1    0    0    0    0  0.00000000000E+00  0.00000000000E+00  0.45600000000E+02  0.45600000000E+02  0.00000000000E+00 0. -1.
         11   -1    0    0    0    0 -0.00000000000E+00 -0.00000000000E+00 -0.45600000000E+02  0.45600000000E+02  0.00000000000E+00 0. -1.
        -11    1    1    2    0    0  0.69846314523E+00 -0.76838152960E+00  0.38583913135E+02  0.38597883540E+02  0.00000000000E+00 0. -1.
         11    1    1    2    0    0 -0.48572156538E+00  0.16709811583E+01 -0.43398946935E+02  0.43433819755E+02  0.00000000000E+00 0. -1.
        -15    1    1    2    0    0 -0.16205045436E+01  0.17561647325E+00 -0.11684466325E+01  0.26795284388E+01  0.17770000000E+01 0.  1.
         15    1    1    2    0    0  0.14077629638E+01 -0.10782161019E+01  0.59834804328E+01  0.64887682663E+01  0.17770000000E+01 0.  1.
</event>
<event>
 6    1  0.3691007E-002  0.4615926E+02  0.7546771E-02  0.1315387E+00
        -11   -1    0    0    0    0  0.00000000000E+00  0.00000000000E+00  0.45600000000E+02  0.45600000000E+02  0.00000000000E+00 0. -1.
         11   -1    0    0    0    0 -0.00000000000E+00 -0.00000000000E+00 -0.45600000000E+02  0.45600000000E+02  0.00000000000E+00 0.  1.
        -11    1    1    2    0    0 -0.38798686778E+00 -0.99064711134E+00  0.36754734775E+02  0.36770129778E+02  0.00000000000E+00 0. -1.
         11    1    1    2    0    0 -0.18804512525E+01  0.81260783012E+00 -0.44994129334E+02  0.45040738259E+02  0.00000000000E+00 0.  1.
        -15    1    1    2    0    0  0.16012879825E+01  0.38942970122E+00  0.58367140538E+01  0.63198685620E+01  0.17770000000E+01 0. -1.
         15    1    1    2    0    0  0.66715013778E+00 -0.21139042000E+00  0.24026805045E+01  0.30692634006E+01  0.17770000000E+01 0.  1.
</event>
<event>
 6    1  0.3691007E-002  0.4617558E+02  0.7546771E-02  0.1315309E+00
        -11   -1    0    0    0    0  0.00000000000E+00  0.00000000000E+00  0.45600000000E+02  0.45600000000E+02  0.00000000000E+00 0. -1.
         11   -1    0    0    0    0 -0.00000000000E+00 -0.00000000000E+00 -0.45600000000E+02  0.45600000000E+02  0.00000000000E+00 0.  1.
        -11    1    1    2    0    0  0.12560947989E+01 -0.10974858666E+01  0.31469810186E+02  0.31513984237E+02  0.00000000000E+00 0. -1.
         11    1    1    2    0    0 -0.19439049919E+01  0.20055036533E+00 -0.44981992192E+02  0.45024422358E+02  0.00000000000E+00 0.  1.
        -15    1    1    2    0    0  0.16790241519E+01 -0.56178985432E+00  0.32896238667E+01  0.41369172251E+01  0.17770000000E+01 0. -1.
         15    1    1    2    0    0 -0.99121395897E+00  0.14587253556E+01  0.10222558140E+02  0.10524676180E+02  0.17770000000E+01 0. -1.
</event>
<event>
 6    1  0.3691007E-002  0.4247726E+02  0.7546771E-02  0.1334134E+00
        -11   -1    0    0    0    0  0.00000000000E+00  0.00000000000E+00  0.45600000000E+02  0.45600000000E+02  0.00000000000E+00 0. -1.
         11   -1    0    0    0    0 -0.00000000000E+00 -0.00000000000E+00 -0.45600000000E+02  0.45600000000E+02  0.00000000000E+00 0. -1.
        -11    1    1    2    0    0  0.95805309763E+00 -0.46299707736E+00  0.42128872189E+02  0.42142307768E+02  0.00000000000E+00 0. -1.
         11    1    1    2    0    0  0.57391576691E+00 -0.11888655829E+01 -0.42824575628E+02  0.42844918700E+02  0.00000000000E+00 0. -1.
        -15    1    1    2    0    0 -0.17263571035E+01  0.30052361106E+01  0.76658603118E+00  0.39695259254E+01  0.17770000000E+01 0. -1.
         15    1    1    2    0    0  0.19438823895E+00 -0.13533734504E+01 -0.70882592030E-01  0.22432476068E+01  0.17770000000E+01 0. -1.
</event>
<event>
 6    1  0.3691007E-002  0.4967355E+02  0.7546771E-02  0.1299283E+00
        -11   -1    0    0    0    0  0.00000000000E+00  0.00000000000E+00  0.45600000000E+02  0.45600000000E+02  0.00000000000E+00 0. -1.
         11   -1    0    0    0    0 -0.00000000000E+00 -0.00000000000E+00 -0.45600000000E+02  0.45600000000E+02  0.00000000000E+00 0. -1.
        -11    1    1    2    0    0 -0.30381364728E+01 -0.35868671237E+01  0.33128544318E+02  0.33460369658E+02  0.00000000000E+00 0. -1.
         11    1    1    2    0    0 -0.50514342789E+01  0.23285976646E+01 -0.41152237259E+02  0.41526449244E+02  0.00000000000E+00 0. -1.
        -15    1    1    2    0    0  0.72402584236E+01 -0.16026054129E+01  0.17179432213E+00  0.76273801819E+01  0.17770000000E+01 0. -1.
         15    1    1    2    0    0  0.84931232815E+00  0.28608748720E+01  0.78518986185E+01  0.85858009166E+01  0.17770000000E+01 0.  1.
</event>
<event>
 6    1  0.3691007E-002  0.4642656E+02  0.7546771E-02  0.1314105E+00
        -11   -1    0    0    0    0  0.00000000000E+00  0.00000000000E+00  0.45600000000E+02  0.45600000000E+02  0.00000000000E+00 0.  1.
         11   -1    0    0    0    0 -0.00000000000E+00 -0.00000000000E+00 -0.45600000000E+02  0.45600000000E+02  0.00000000000E+00 0. -1.
        -11    1    1    2    0    0 -0.65027030806E+00  0.36361799668E+00  0.44767236063E+02  0.44773435140E+02  0.00000000000E+00 0.  1.
         11    1    1    2    0    0  0.18002467670E+01  0.33553856155E-01 -0.35383621275E+02  0.35429404015E+02  0.00000000000E+00 0. -1.
        -15    1    1    2    0    0  0.18699057911E-01 -0.77372827011E+00 -0.84055055846E+01  0.86260801193E+01  0.17770000000E+01 0.  1.
         15    1    1    2    0    0 -0.11686755169E+01  0.37655641727E+00 -0.97810920268E+00  0.23710807265E+01  0.17770000000E+01 0.  1.
</event>
<event>
 6    1  0.3691007E-002  0.4718435E+02  0.7546771E-02  0.1310524E+00
        -11   -1    0    0    0    0  0.00000000000E+00  0.00000000000E+00  0.45600000000E+02  0.45600000000E+02  0.00000000000E+00 0.  1.
         11   -1    0    0    0    0 -0.00000000000E+00 -0.00000000000E+00 -0.45600000000E+02  0.45600000000E+02  0.00000000000E+00 0.  1.
        -11    1    1    2    0    0  0.22415268936E+01 -0.12431879587E+01  0.38137610381E+02  0.38223648239E+02  0.00000000000E+00 0.  1.
         11    1    1    2    0    0  0.12414717204E+01 -0.44028060171E+00 -0.43995936539E+02  0.44015650977E+02  0.00000000000E+00 0.  1.
        -15    1    1    2    0    0 -0.10902369860E+00 -0.10305806362E+01  0.13396832549E+01  0.24548855041E+01  0.17770000000E+01 0. -1.
         15    1    1    2    0    0 -0.33739749154E+01  0.27140491966E+01  0.45186429022E+01  0.65058152794E+01  0.17770000000E+01 0. -1.
</event>
<event>
 6    1  0.3691007E-002  0.4810937E+02  0.7546771E-02  0.1306255E+00
        -11   -1    0    0    0    0  0.00000000000E+00  0.00000000000E+00  0.45600000000E+02  0.45600000000E+02  0.00000000000E+00 0.  1.
         11   -1    0    0    0    0 -0.00000000000E+00 -0.00000000000E+00 -0.45600000000E+02  0.45600000000E+02  0.00000000000E+00 0.  1.
        -11    1    1    2    0    0  0.23979673465E+01 -0.20420461975E+01  0.40084018335E+02  0.40207570506E+02  0.00000000000E+00 0.  1.
         11    1    1    2    0    0 -0.26808466251E+01 -0.14387994925E+00 -0.43006910391E+02  0.43090625215E+02  0.00000000000E+00 0.  1.
        -15    1    1    2    0    0  0.29467923790E+01  0.34291169613E-01  0.95712257791E+00  0.35719145901E+01  0.17770000000E+01 0. -1.
         15    1    1    2    0    0 -0.26639131005E+01  0.21516349771E+01  0.19657694776E+01  0.43298896892E+01  0.17770000000E+01 0. -1.
</event>
<event>
 6    1  0.3691007E-002  0.4778973E+02  0.7546771E-02  0.1307718E+00
        -11   -1    0    0    0    0  0.00000000000E+00  0.00000000000E+00  0.45600000000E+02  0.45600000000E+02  0.00000000000E+00 0.  1.
         11   -1    0    0    0    0 -0.00000000000E+00 -0.00000000000E+00 -0.45600000000E+02  0.45600000000E+02  0.00000000000E+00 0. -1.
        -11    1    1    2    0    0  0.79613695308E+00 -0.94622744307E+00  0.43392648761E+02  0.43410265455E+02  0.00000000000E+00 0.  1.
         11    1    1    2    0    0  0.19560648600E+01  0.18010741638E+01 -0.34120497913E+02  0.34223945355E+02  0.00000000000E+00 0. -1.
        -15    1    1    2    0    0  0.16709384575E+01  0.62854555929E+00  0.52227185066E+00  0.25724699677E+01  0.17770000000E+01 0. -1.
         15    1    1    2    0    0 -0.44231402706E+01 -0.14833922800E+01 -0.97944226987E+01  0.10993319222E+02  0.17770000000E+01 0. -1.
</event>
<event>
 6    1  0.3691007E-002  0.4145576E+02  0.7546771E-02  0.1339728E+00
        -11   -1    0    0    0    0  0.00000000000E+00  0.00000000000E+00  0.45600000000E+02  0.45600000000E+02  0.00000000000E+00 0. -1.
         11   -1    0    0    0    0 -0.00000000000E+00 -0.00000000000E+00 -0.45600000000E+02  0.45600000000E+02  0.00000000000E+00 0. -1.
        -11    1    1    2    0    0 -0.19089141688E+00  0.23580441464E+01  0.41260185559E+02  0.41327953302E+02  0.00000000000E+00 0. -1.
         11    1    1    2    0    0  0.63928857466E+00  0.17038970309E+00 -0.41618847015E+02  0.41624105388E+02  0.00000000000E+00 0. -1.
        -15    1    1    2    0    0 -0.32055175651E+01  0.54942068646E+00  0.54546997270E+00  0.37459941860E+01  0.17770000000E+01 0. -1.
         15    1    1    2    0    0  0.27571204073E+01 -0.30778545360E+01 -0.18680851683E+00  0.45019471240E+01  0.17770000000E+01 0. -1.
</event>
<event>
 6    1  0.3691007E-002  0.4692136E+02  0.7546771E-02  0.1311758E+00
        -11   -1    0    0    0    0  0.00000000000E+00  0.00000000000E+00  0.45600000000E+02  0.45600000000E+02  0.00000000000E+00 0.  1.
         11   -1    0    0    0    0 -0.00000000000E+00 -0.00000000000E+00 -0.45600000000E+02  0.45600000000E+02  0.00000000000E+00 0.  1.
        -11    1    1    2    0    0  0.12461995186E+01 -0.90649115309E+00  0.44251811343E+02  0.44278635328E+02  0.00000000000E+00 0.  1.
         11    1    1    2    0    0  0.64855156449E+00  0.87374159886E+00 -0.36893240107E+02  0.36909283509E+02  0.00000000000E+00 0.  1.
        -15    1    1    2    0    0 -0.16167788301E+00 -0.96271047918E+00 -0.70312903130E+01  0.73177676699E+01  0.17770000000E+01 0. -1.
         15    1    1    2    0    0 -0.17330732001E+01  0.99546003341E+00 -0.32728092212E+00  0.26943134927E+01  0.17770000000E+01 0. -1.
</event>
<event>
 6    1  0.3691007E-002  0.4707570E+02  0.7546771E-02  0.1311032E+00
        -11   -1    0    0    0    0  0.00000000000E+00  0.00000000000E+00  0.45600000000E+02  0.45600000000E+02  0.00000000000E+00 0.  1.
         11   -1    0    0    0    0 -0.00000000000E+00 -0.00000000000E+00 -0.45600000000E+02  0.45600000000E+02  0.00000000000E+00 0.  1.
        -11    1    1    2    0    0  0.16065228970E+01  0.30930079476E+01  0.43986435691E+02  0.44124303267E+02  0.00000000000E+00 0.  1.
         11    1    1    2    0    0 -0.95761971508E+00  0.53155691330E+00 -0.34659333547E+02  0.34676634644E+02  0.00000000000E+00 0.  1.
        -15    1    1    2    0    0 -0.21632986659E+01  0.53273711439E+00 -0.14654822703E+01  0.32045338562E+01  0.17770000000E+01 0. -1.
         15    1    1    2    0    0  0.15143954840E+01 -0.41573019753E+01 -0.78616198736E+01  0.91945282333E+01  0.17770000000E+01 0.  1.
</event>
<event>
 6    1  0.3691007E-002  0.4586743E+02  0.7546771E-02  0.1316798E+00
        -11   -1    0    0    0    0  0.00000000000E+00  0.00000000000E+00  0.45600000000E+02  0.45600000000E+02  0.00000000000E+00 0. -1.
         11   -1    0    0    0    0 -0.00000000000E+00 -0.00000000000E+00 -0.45600000000E+02  0.45600000000E+02  0.00000000000E+00 0.  1.
        -11    1    1    2    0    0  0.63224671283E+00 -0.62788866135E+00  0.45323816402E+02  0.45332574528E+02  0.00000000000E+00 0. -1.
         11    1    1    2    0    0 -0.30813140203E+00  0.69393518952E+00 -0.50589102353E+01  0.51155707186E+01  0.00000000000E+00 0.  1.
        -15    1    1    2    0    0 -0.12113421951E+01 -0.19282767857E+01 -0.11454315244E+02  0.11812902606E+02  0.17770000000E+01 0.  1.
         15    1    1    2    0    0  0.88722688427E+00  0.18622302575E+01 -0.28810590922E+02  0.28938952147E+02  0.17770000000E+01 0.  1.
</event>
<event>
 6    1  0.3691007E-002  0.4975112E+02  0.7546771E-02  0.1298945E+00
        -11   -1    0    0    0    0  0.00000000000E+00  0.00000000000E+00  0.45600000000E+02  0.45600000000E+02  0.00000000000E+00 0. -1.
         11   -1    0    0    0    0 -0.00000000000E+00 -0.00000000000E+00 -0.45600000000E+02  0.45600000000E+02  0.00000000000E+00 0.  1.
        -11    1    1    2    0    0 -0.66902514071E+00 -0.44438498879E+01  0.36867018012E+02  0.37139903252E+02  0.00000000000E+00 0. -1.
         11    1    1    2    0    0 -0.10304333008E+01 -0.29460164172E+00 -0.41435017732E+02  0.41448875466E+02  0.00000000000E+00 0.  1.
        -15    1    1    2    0    0 -0.37439038228E+01  0.14379560450E+01  0.40690118830E+01  0.59832365928E+01  0.17770000000E+01 0.  1.
         15    1    1    2    0    0  0.54433622642E+01  0.33004954847E+01  0.49898783739E+00  0.66279846896E+01  0.17770000000E+01 0. -1.
</event>
<event>
 6    1  0.3691007E-002  0.4577300E+02  0.7546771E-02  0.1317258E+00
        -11   -1    0    0    0    0  0.00000000000E+00  0.00000000000E+00  0.45600000000E+02  0.45600000000E+02  0.00000000000E+00 0.  1.
         11   -1    0    0    0    0 -0.00000000000E+00 -0.00000000000E+00 -0.45600000000E+02  0.45600000000E+02  0.00000000000E+00 0. -1.
        -11    1    1    2    0    0 -0.49605352156E+00  0.92694928486E+00  0.18485326991E+02  0.18515199649E+02  0.00000000000E+00 0.  1.
         11    1    1    2    0    0 -0.10897339207E+00  0.88078259123E+00 -0.45418327268E+02  0.45426997535E+02  0.00000000000E+00 0. -1.
        -15    1    1    2    0    0 -0.14008601808E-01 -0.12307916354E+01  0.11680804217E+02  0.11879139718E+02  0.17770000000E+01 0. -1.
         15    1    1    2    0    0  0.61903551544E+00 -0.57694024069E+00  0.15252196060E+02  0.15378663098E+02  0.17770000000E+01 0.  1.
</event>
<event>
 6    1  0.3691007E-002  0.4623719E+02  0.7546771E-02  0.1315012E+00
        -11   -1    0    0    0    0  0.00000000000E+00  0.00000000000E+00  0.45600000000E+02  0.45600000000E+02  0.00000000000E+00 0. -1.
         11   -1    0    0    0    0 -0.00000000000E+00 -0.00000000000E+00 -0.45600000000E+02  0.45600000000E+02  0.00000000000E+00 0. -1.
        -11    1    1    2    0    0  0.28147903806E+01 -0.12846003962E+01  0.44856223594E+02  0.44962807276E+02  0.00000000000E+00 0. -1.
         11    1    1    2    0    0  0.62448328243E+00  0.39132961882E+00 -0.29151510216E+02  0.29160824168E+02  0.00000000000E+00 0. -1.
        -15    1    1    2    0    0 -0.40686242593E+01  0.63958957868E+00 -0.83373548480E+01  0.94674174437E+01  0.17770000000E+01 0. -1.
         15    1    1    2    0    0  0.62935059619E+00  0.25368119866E+00 -0.73673585296E+01  0.76089511122E+01  0.17770000000E+01 0. -1.
</event>
<event>
 6    1  0.3691007E-002  0.4904674E+02  0.7546771E-02  0.1302041E+00
        -11   -1    0    0    0    0  0.00000000000E+00  0.00000000000E+00  0.45600000000E+02  0.45600000000E+02  0.00000000000E+00 0. -1.
         11   -1    0    0    0    0 -0.00000000000E+00 -0.00000000000E+00 -0.45600000000E+02  0.45600000000E+02  0.00000000000E+00 0.  1.
        -11    1    1    2    0    0  0.21399898418E+01 -0.11141098455E+00  0.42098761925E+02  0.42153264696E+02  0.00000000000E+00 0. -1.
         11    1    1    2    0    0  0.26328719014E+00 -0.28519132568E+01 -0.32249799390E+02  0.32376724511E+02  0.00000000000E+00 0.  1.
        -15    1    1    2    0    0 -0.49435881345E-01  0.23405644354E+01  0.25615291202E+01  0.38986980155E+01  0.17770000000E+01 0. -1.
         15    1    1    2    0    0 -0.23538411506E+01  0.62275980599E+00 -0.12410491655E+02  0.12771312777E+02  0.17770000000E+01 0.  1.
</event>
<event>
 6    1  0.3691007E-002  0.4751740E+02  0.7546771E-02  0.1308974E+00
        -11   -1    0    0    0    0  0.00000000000E+00  0.00000000000E+00  0.45600000000E+02  0.45600000000E+02  0.00000000000E+00 0.  1.
         11   -1    0    0    0    0 -0.00000000000E+00 -0.00000000000E+00 -0.45600000000E+02  0.45600000000E+02  0.00000000000E+00 0. -1.
        -11    1    1    2    0    0  0.91182533615E-01  0.90576769966E+00  0.40413428622E+02  0.40423680465E+02  0.00000000000E+00 0.  1.
         11    1    1    2    0    0 -0.22714062675E+01  0.75090147222E+00 -0.43617043176E+02  0.43682600597E+02  0.00000000000E+00 0. -1.
        -15    1    1    2    0    0  0.32303103747E+01 -0.91644788099E+00  0.88160870257E+00  0.38999672742E+01  0.17770000000E+01 0.  1.
         15    1    1    2    0    0 -0.10500866408E+01 -0.74022129089E+00  0.23220058523E+01  0.31937516639E+01  0.17770000000E+01 0.  1.
</event>
<event>
 6    1  0.3691007E-002  0.5370513E+02  0.7546771E-02  0.1282593E+00
        -11   -1    0    0    0    0  0.00000000000E+00  0.00000000000E+00  0.45600000000E+02  0.45600000000E+02  0.00000000000E+00 0.  1.
         11   -1    0    0    0    0 -0.00000000000E+00 -0.00000000000E+00 -0.45600000000E+02  0.45600000000E+02  0.00000000000E+00 0.  1.
        -11    1    1    2    0    0  0.68724648331E+00 -0.22375966732E+01  0.37421731148E+02  0.37494867765E+02  0.00000000000E+00 0.  1.
         11    1    1    2    0    0 -0.41781546783E+00 -0.56431843333E+00 -0.34861403572E+02  0.34868474072E+02  0.00000000000E+00 0.  1.
        -15    1    1    2    0    0 -0.54775295091E+01  0.88028520460E+01 -0.15233080547E+01  0.10628816025E+02  0.17770000000E+01 0. -1.
         15    1    1    2    0    0  0.52080984936E+01 -0.60009369396E+01 -0.10370195217E+01  0.82078421379E+01  0.17770000000E+01 0.  1.
</event>
<event>
 6    1  0.3691007E-002  0.4674580E+02  0.7546771E-02  0.1312587E+00
        -11   -1    0    0    0    0  0.00000000000E+00  0.00000000000E+00  0.45600000000E+02  0.45600000000E+02  0.00000000000E+00 0. -1.
         11   -1    0    0    0    0 -0.00000000000E+00 -0.00000000000E+00 -0.45600000000E+02  0.45600000000E+02  0.00000000000E+00 0.  1.
        -11    1    1    2    0    0  0.12179569007E+01 -0.28342232488E+00  0.24999096701E+02  0.25030353235E+02  0.00000000000E+00 0. -1.
         11    1    1    2    0    0 -0.13616135582E+01 -0.34489020132E+00 -0.44432007098E+02  0.44454203350E+02  0.00000000000E+00 0.  1.
        -15    1    1    2    0    0 -0.20457828309E+01 -0.54191049708E+00  0.86129032428E+00  0.28945542663E+01  0.17770000000E+01 0. -1.
         15    1    1    2    0    0  0.21894394883E+01  0.11702230233E+01  0.18571620073E+02  0.18820889148E+02  0.17770000000E+01 0. -1.
</event>
<event>
 6    1  0.3691007E-002  0.4752370E+02  0.7546771E-02  0.1308945E+00
        -11   -1    0    0    0    0  0.00000000000E+00  0.00000000000E+00  0.45600000000E+02  0.45600000000E+02  0.00000000000E+00 0. -1.
         11   -1    0    0    0    0 -0.00000000000E+00 -0.00000000000E+00 -0.45600000000E+02  0.45600000000E+02  0.00000000000E+00 0. -1.
        -11    1    1    2    0    0 -0.66592448022E+00 -0.93688130295E+00  0.29480830500E+02  0.29503229805E+02  0.00000000000E+00 0. -1.
         11    1    1    2    0    0 -0.82013491270E+01  0.81704593947E+00 -0.42891598926E+02  0.43676297348E+02  0.00000000000E+00 0. -1.
        -15    1    1    2    0    0  0.26356963997E+01 -0.34067666536E+01  0.52078599058E+01  0.69880246380E+01  0.17770000000E+01 0.  1.
         15    1    1    2    0    0  0.62315772075E+01  0.35266020171E+01  0.82029085208E+01  0.11032448209E+02  0.17770000000E+01 0. -1.
</event>
<event>
 6    1  0.3691007E-002  0.4690569E+02  0.7546771E-02  0.1311832E+00
        -11   -1    0    0    0    0  0.00000000000E+00  0.00000000000E+00  0.45600000000E+02  0.45600000000E+02  0.00000000000E+00 0. -1.
         11   -1    0    0    0    0 -0.00000000000E+00 -0.00000000000E+00 -0.45600000000E+02  0.45600000000E+02  0.00000000000E+00 0. -1.
        -11    1    1    2    0    0 -0.11839082045E+01 -0.28096162674E+01  0.44189253732E+02  0.44294308072E+02  0.00000000000E+00 0. -1.
         11    1    1    2    0    0  0.92780839082E+00  0.15045812218E+00 -0.40502014700E+02  0.40512919677E+02  0.00000000000E+00 0. -1.
        -15    1    1    2    0    0 -0.97888689379E+00  0.20523549707E+01 -0.14822053286E+01  0.32442321299E+01  0.17770000000E+01 0. -1.
         15    1    1    2    0    0  0.12349867075E+01  0.60680317459E+00 -0.22050337034E+01  0.31485401210E+01  0.17770000000E+01 0.  1.
</event>
<event>
 6    1  0.3691007E-002  0.4705722E+02  0.7546771E-02  0.1311119E+00
        -11   -1    0    0    0    0  0.00000000000E+00  0.00000000000E+00  0.45600000000E+02  0.45600000000E+02  0.00000000000E+00 0. -1.
         11   -1    0    0    0    0 -0.00000000000E+00 -0.00000000000E+00 -0.45600000000E+02  0.45600000000E+02  0.00000000000E+00 0.  1.
        -11    1    1    2    0    0  0.27869357211E+01 -0.23356905528E+01  0.43992752658E+02  0.44142776844E+02  0.00000000000E+00 0. -1.
         11    1    1    2    0    0  0.38469385068E+00 -0.81338256416E+00 -0.36803040355E+02  0.36814037539E+02  0.00000000000E+00 0.  1.
        -15    1    1    2    0    0 -0.18043050733E+01  0.20900615560E+01 -0.70292166813E+01  0.77583174889E+01  0.17770000000E+01 0. -1.
         15    1    1    2    0    0 -0.13673244985E+01  0.10590115609E+01 -0.16049562105E+00  0.24848681282E+01  0.17770000000E+01 0. -1.
</event>
<event>
 6    1  0.3691007E-002  0.4670939E+02  0.7546771E-02  0.1312759E+00
        -11   -1    0    0    0    0  0.00000000000E+00  0.00000000000E+00  0.45600000000E+02  0.45600000000E+02  0.00000000000E+00 0. -1.
         11   -1    0    0    0    0 -0.00000000000E+00 -0.00000000000E+00 -0.45600000000E+02  0.45600000000E+02  0.00000000000E+00 0.  1.
        -11    1    1    2    0    0  0.24080927451E+01 -0.27065491417E+01  0.29969304947E+02  0.30187473526E+02  0.00000000000E+00 0. -1.
         11    1    1    2    0    0  0.82903803389E+00  0.89001118017E-01 -0.44482794008E+02  0.44490607863E+02  0.00000000000E+00 0.  1.
        -15    1    1    2    0    0  0.15109438031E+01  0.90060267560E+00  0.54443612313E+01  0.59910628917E+01  0.17770000000E+01 0. -1.
         15    1    1    2    0    0 -0.47480745821E+01  0.17169453480E+01  0.90691278303E+01  0.10530855719E+02  0.17770000000E+01 0. -1.
</event>
<event>
 6    1  0.3691007E-002  0.4734270E+02  0.7546771E-02  0.1309785E+00
        -11   -1    0    0    0    0  0.00000000000E+00  0.00000000000E+00  0.45600000000E+02  0.45600000000E+02  0.00000000000E+00 0.  1.
         11   -1    0    0    0    0 -0.00000000000E+00 -0.00000000000E+00 -0.45600000000E+02  0.45600000000E+02  0.00000000000E+00 0.  1.
        -11    1    1    2    0    0  0.10770490227E+01 -0.72698715916E-01  0.32627401452E+02  0.32645254559E+02  0.00000000000E+00 0.  1.
         11    1    1    2    0    0 -0.33173332995E+00 -0.28086158919E+01 -0.43766019312E+02  0.43857300609E+02  0.00000000000E+00 0.  1.
        -15    1    1    2    0    0 -0.16422093143E+01 -0.23542959634E+00  0.10700805300E+02  0.10973479010E+02  0.17770000000E+01 0.  1.
         15    1    1    2    0    0  0.89689362164E+00  0.31167442041E+01  0.43781256025E+00  0.37239658216E+01  0.17770000000E+01 0.  1.
</event>
<event>
 6    1  0.3691007E-002  0.4610494E+02  0.7546771E-02  0.1315649E+00
        -11   -1    0    0    0    0  0.00000000000E+00  0.00000000000E+00  0.45600000000E+02  0.45600000000E+02  0.00000000000E+00 0.  1.
         11   -1    0    0    0    0 -0.00000000000E+00 -0.00000000000E+00 -0.45600000000E+02  0.45600000000E+02  0.00000000000E+00 0.  1.
        -11    1    1    2    0    0 -0.25476025340E+01 -0.22901274143E+01  0.44964761063E+02  0.45095062920E+02  0.00000000000E+00 0.  1.
         11    1    1    2    0    0  0.12733789831E+01  0.14261015222E+01 -0.22369575689E+02  0.22451128615E+02  0.00000000000E+00 0.  1.
        -15    1    1    2    0    0  0.47174338190E+00 -0.24989802890E+01 -0.10570541362E+02  0.11016420380E+02  0.17770000000E+01 0.  1.
         15    1    1    2    0    0  0.80248016901E+00  0.33630061812E+01 -0.12024644012E+02  0.12637388085E+02  0.17770000000E+01 0.  1.
</event>
<event>
 6    1  0.5360183E-002  0.4691700E+02  0.7546771E-02  0.1311778E+00
        -11   -1    0    0    0    0  0.00000000000E+00  0.00000000000E+00  0.45600000000E+02  0.45600000000E+02  0.00000000000E+00 0.  1.
         11   -1    0    0    0    0 -0.00000000000E+00 -0.00000000000E+00 -0.45600000000E+02  0.45600000000E+02  0.00000000000E+00 0.  1.
        -11    1    1    2    0    0 -0.14651820710E+01  0.25889443510E+01  0.44182969461E+02  0.44283001047E+02  0.00000000000E+00 0.  1.
         11    1    1    2    0    0  0.16189073001E+01 -0.21503212179E+01 -0.21079747855E+02  0.21250894377E+02  0.00000000000E+00 0.  1.
        -15    1    1    2    0    0 -0.20386459263E+01  0.59610262572E+00 -0.22675526570E+02  0.22844006868E+02  0.17770000000E+01 0. -1.
         15    1    1    2    0    0  0.18849206971E+01 -0.10347257588E+01 -0.42769503662E+00  0.28220977082E+01  0.17770000000E+01 0.  1.
</event>
<event>
 6    1  0.3691007E-002  0.4722437E+02  0.7546771E-02  0.1310337E+00
        -11   -1    0    0    0    0  0.00000000000E+00  0.00000000000E+00  0.45600000000E+02  0.45600000000E+02  0.00000000000E+00 0. -1.
         11   -1    0    0    0    0 -0.00000000000E+00 -0.00000000000E+00 -0.45600000000E+02  0.45600000000E+02  0.00000000000E+00 0. -1.
        -11    1    1    2    0    0  0.21438568030E+01 -0.35037975696E-01  0.40187991327E+02  0.40245148733E+02  0.00000000000E+00 0. -1.
         11    1    1    2    0    0  0.90885873392E+00 -0.66239599048E-01 -0.43966185018E+02  0.43975627761E+02  0.00000000000E+00 0. -1.
        -15    1    1    2    0    0  0.17063790798E+00  0.10342773262E+01  0.11593828693E+01  0.23665892167E+01  0.17770000000E+01 0. -1.
         15    1    1    2    0    0 -0.32233534449E+01 -0.93299975141E+00  0.26188108225E+01  0.46126342897E+01  0.17770000000E+01 0. -1.
</event>
<event>
 6    1  0.3691007E-002  0.4613163E+02  0.7546771E-02  0.1315520E+00
        -11   -1    0    0    0    0  0.00000000000E+00  0.00000000000E+00  0.45600000000E+02  0.45600000000E+02  0.00000000000E+00 0. -1.
         11   -1    0    0    0    0 -0.00000000000E+00 -0.00000000000E+00 -0.45600000000E+02  0.45600000000E+02  0.00000000000E+00 0.  1.
        -11    1    1    2    0    0  0.18590141013E+01 -0.16049852316E+01  0.45001400247E+02  0.45068369564E+02  0.00000000000E+00 0. -1.
         11    1    1    2    0    0 -0.15249338218E+00 -0.10375150175E+01 -0.13349730250E+02  0.13390854693E+02  0.00000000000E+00 0.  1.
        -15    1    1    2    0    0  0.22223371563E+01  0.23258565396E+01 -0.19488669909E+02  0.19832155075E+02  0.17770000000E+01 0.  1.
         15    1    1    2    0    0 -0.39288578754E+01  0.31664370957E+00 -0.12163000087E+02  0.12908620668E+02  0.17770000000E+01 0.  1.
</event>
<event>
 6    1  0.3691007E-002  0.4736042E+02  0.7546771E-02  0.1309703E+00
        -11   -1    0    0    0    0  0.00000000000E+00  0.00000000000E+00  0.45600000000E+02  0.45600000000E+02  0.00000000000E+00 0.  1.
         11   -1    0    0    0    0 -0.00000000000E+00 -0.00000000000E+00 -0.45600000000E+02  0.45600000000E+02  0.00000000000E+00 0.  1.
        -11    1    1    2    0    0  0.70300098616E+00 -0.90805772198E+00  0.43824538168E+02  0.43839581714E+02  0.00000000000E+00 0.  1.
         11    1    1    2    0    0  0.18098269095E+00 -0.27278912502E+01 -0.27865713169E+02  0.27999502063E+02  0.00000000000E+00 0.  1.
        -15    1    1    2    0    0  0.27520730221E+00 -0.18950614426E+01 -0.31295119554E+00  0.26310956618E+01  0.17770000000E+01 0. -1.
         15    1    1    2    0    0 -0.11591909793E+01  0.55310104148E+01 -0.15645873804E+02  0.16729820561E+02  0.17770000000E+01 0.  1.
</event>
<event>
 6    1  0.3691007E-002  0.4741678E+02  0.7546771E-02  0.1309441E+00
        -11   -1    0    0    0    0  0.00000000000E+00  0.00000000000E+00  0.45600000000E+02  0.45600000000E+02  0.00000000000E+00 0.  1.
         11   -1    0    0    0    0 -0.00000000000E+00 -0.00000000000E+00 -0.45600000000E+02  0.45600000000E+02  0.00000000000E+00 0. -1.
        -11    1    1    2    0    0  0.39766806405E+01 -0.24227539017E+01  0.43534888359E+02  0.43783218587E+02  0.00000000000E+00 0.  1.
         11    1    1    2    0    0 -0.10386777589E+01 -0.59726561178E-01 -0.24392018505E+02  0.24414196392E+02  0.00000000000E+00 0. -1.
        -15    1    1    2    0    0  0.20636830340E+01 -0.29990709275E+01 -0.11542824031E+02  0.12233058886E+02  0.17770000000E+01 0.  1.
         15    1    1    2    0    0 -0.50016859155E+01  0.54815513904E+01 -0.76000458237E+01  0.10769526135E+02  0.17770000000E+01 0.  1.
</event>
<event>
 6    1  0.3691007E-002  0.5086297E+02  0.7546771E-02  0.1294175E+00
        -11   -1    0    0    0    0  0.00000000000E+00  0.00000000000E+00  0.45600000000E+02  0.45600000000E+02  0.00000000000E+00 0.  1.
         11   -1    0    0    0    0 -0.00000000000E+00 -0.00000000000E+00 -0.45600000000E+02  0.45600000000E+02  0.00000000000E+00 0. -1.
        -11    1    1    2    0    0  0.11408032263E+01  0.26441272787E+00  0.23541968835E+02  0.23571076402E+02  0.00000000000E+00 0.  1.
         11    1    1    2    0    0  0.18160515757E+00 -0.15038530606E+01 -0.40308576710E+02  0.40337029028E+02  0.00000000000E+00 0. -1.
        -15    1    1    2    0    0  0.77377260885E+01 -0.23341380118E+00  0.16058822456E+02  0.17915646645E+02  0.17770000000E+01 0. -1.
         15    1    1    2    0    0 -0.90601344724E+01  0.14728541339E+01  0.70778541827E+00  0.93762479253E+01  0.17770000000E+01 0.  1.
</event>
<event>
 6    1  0.3691007E-002  0.4781462E+02  0.7546771E-02  0.1307603E+00
        -11   -1    0    0    0    0  0.00000000000E+00  0.00000000000E+00  0.45600000000E+02  0.45600000000E+02  0.00000000000E+00 0. -1.
         11   -1    0    0    0    0 -0.00000000000E+00 -0.00000000000E+00 -0.45600000000E+02  0.45600000000E+02  0.00000000000E+00 0.  1.
        -11    1    1    2    0    0  0.82175210980E-01  0.58066099933E+00  0.43381420084E+02  0.43385383811E+02  0.00000000000E+00 0. -1.
         11    1    1    2    0    0  0.59258399092E+00  0.39458544574E+00 -0.38826144318E+02  0.38832670988E+02  0.00000000000E+00 0.  1.
        -15    1    1    2    0    0 -0.26286038541E+01 -0.12004354355E+01  0.34583585320E+00  0.34099757908E+01  0.17770000000E+01 0.  1.
         15    1    1    2    0    0  0.19538446522E+01  0.22518899040E+00 -0.49011116194E+01  0.55719694105E+01  0.17770000000E+01 0.  1.
</event>
<event>
 6    1  0.3691007E-002  0.4854264E+02  0.7546771E-02  0.1304294E+00
        -11   -1    0    0    0    0  0.00000000000E+00  0.00000000000E+00  0.45600000000E+02  0.45600000000E+02  0.00000000000E+00 0. -1.
         11   -1    0    0    0    0 -0.00000000000E+00 -0.00000000000E+00 -0.45600000000E+02  0.45600000000E+02  0.00000000000E+00 0. -1.
        -11    1    1    2    0    0 -0.10533600119E+01  0.33824368400E+01  0.42510000383E+02  0.42657362540E+02  0.00000000000E+00 0. -1.
         11    1    1    2    0    0 -0.91968269077E+00  0.79526068031E-01 -0.31013440299E+02  0.31027175505E+02  0.00000000000E+00 0. -1.
        -15    1    1    2    0    0  0.70532465875E+01 -0.14140028759E+01 -0.57390553247E+01  0.93724157280E+01  0.17770000000E+01 0. -1.
         15    1    1    2    0    0 -0.50802038849E+01 -0.20479600322E+01 -0.57575047594E+01  0.81430462273E+01  0.17770000000E+01 0.  1.
</event>
<event>
 6    1  0.3691007E-002  0.4712458E+02  0.7546771E-02  0.1310803E+00
        -11   -1    0    0    0    0  0.00000000000E+00  0.00000000000E+00  0.45600000000E+02  0.45600000000E+02  0.00000000000E+00 0. -1.
         11   -1    0    0    0    0 -0.00000000000E+00 -0.00000000000E+00 -0.45600000000E+02  0.45600000000E+02  0.00000000000E+00 0. -1.
        -11    1    1    2    0    0 -0.11743940529E+01 -0.33633211904E+00  0.31406047383E+02  0.31429796896E+02  0.00000000000E+00 0. -1.
         11    1    1    2    0    0 -0.19627698393E+00 -0.76359612061E+00 -0.44068364504E+02  0.44075416660E+02  0.00000000000E+00 0. -1.
        -15    1    1    2    0    0  0.59087244689E+00 -0.58925725378E+00  0.12957280969E+02  0.13105159803E+02  0.17770000000E+01 0.  1.
         15    1    1    2    0    0  0.77979858990E+00  0.16891854934E+01 -0.29496384810E+00  0.25896266418E+01  0.17770000000E+01 0.  1.
</event>
<event>
 6    1  0.3691007E-002  0.4702803E+02  0.7546771E-02  0.1311256E+00
        -11   -1    0    0    0    0  0.00000000000E+00  0.00000000000E+00  0.45600000000E+02  0.45600000000E+02  0.00000000000E+00 0.  1.
         11   -1    0    0    0    0 -0.00000000000E+00 -0.00000000000E+00 -0.45600000000E+02  0.45600000000E+02  0.00000000000E+00 0.  1.
        -11    1    1    2    0    0  0.66683962859E+00  0.33801824669E+00  0.42101719838E+02  0.42108357185E+02  0.00000000000E+00 0.  1.
         11    1    1    2    0    0 -0.37886862150E+00  0.54494441555E+00 -0.44166983367E+02  0.44171969909E+02  0.00000000000E+00 0.  1.
        -15    1    1    2    0    0 -0.13446580308E+01 -0.27754359595E+00  0.63443165632E+00  0.23335312713E+01  0.17770000000E+01 0. -1.
         15    1    1    2    0    0  0.10566870238E+01 -0.60541906629E+00  0.14308318724E+01  0.25861416355E+01  0.17770000000E+01 0.  1.
</event>
<event>
 6    1  0.3691007E-002  0.3907654E+02  0.7546771E-02  0.1353512E+00
        -11   -1    0    0    0    0  0.00000000000E+00  0.00000000000E+00  0.45600000000E+02  0.45600000000E+02  0.00000000000E+00 0. -1.
         11   -1    0    0    0    0 -0.00000000000E+00 -0.00000000000E+00 -0.45600000000E+02  0.45600000000E+02  0.00000000000E+00 0.  1.
        -11    1    1    2    0    0  0.69181327402E+00  0.70371777203E-01  0.39403087947E+02  0.39409223508E+02  0.00000000000E+00 0. -1.
         11    1    1    2    0    0  0.70438162545E+01  0.43400430549E+01 -0.38374475716E+02  0.39256231450E+02  0.00000000000E+00 0.  1.
        -15    1    1    2    0    0 -0.28557199384E+01 -0.56999942822E+01  0.12205589324E+01  0.67299750587E+01  0.17770000000E+01 0.  1.
         15    1    1    2    0    0 -0.48799095902E+01  0.12895794502E+01 -0.22491711628E+01  0.58045699829E+01  0.17770000000E+01 0. -1.
</event>
<event>
 6    1  0.3691007E-002  0.4732371E+02  0.7546771E-02  0.1309873E+00
        -11   -1    0    0    0    0  0.00000000000E+00  0.00000000000E+00  0.45600000000E+02  0.45600000000E+02  0.00000000000E+00 0. -1.
         11   -1    0    0    0    0 -0.00000000000E+00 -0.00000000000E+00 -0.45600000000E+02  0.45600000000E+02  0.00000000000E+00 0.  1.
        -11    1    1    2    0    0 -0.18818782197E+00 -0.81912685076E+00  0.43868240264E+02  0.43876290720E+02  0.00000000000E+00 0. -1.
         11    1    1    2    0    0 -0.17904187465E+01  0.68299821409E+00 -0.32588802557E+02  0.32645093627E+02  0.00000000000E+00 0.  1.
        -15    1    1    2    0    0 -0.13746542412E+01 -0.34291663839E+01 -0.59692456110E+01  0.72414417443E+01  0.17770000000E+01 0. -1.
         15    1    1    2    0    0  0.33532608097E+01  0.35652950206E+01 -0.53101920968E+01  0.74371739086E+01  0.17770000000E+01 0.  1.
</event>
<event>
 6    1  0.3691007E-002  0.4592023E+02  0.7546771E-02  0.1316542E+00
        -11   -1    0    0    0    0  0.00000000000E+00  0.00000000000E+00  0.45600000000E+02  0.45600000000E+02  0.00000000000E+00 0.  1.
         11   -1    0    0    0    0 -0.00000000000E+00 -0.00000000000E+00 -0.45600000000E+02  0.45600000000E+02  0.00000000000E+00 0. -1.
        -11    1    1    2    0    0 -0.13545191477E+01  0.50215932443E+00  0.45256723740E+02  0.45279773959E+02  0.00000000000E+00 0.  1.
         11    1    1    2    0    0  0.47896529949E+00  0.39021822546E+00 -0.30567585945E+02  0.30573828489E+02  0.00000000000E+00 0. -1.
        -15    1    1    2    0    0  0.15438831700E+01 -0.15368045360E+00 -0.67616755469E+01  0.71613670571E+01  0.17770000000E+01 0. -1.
         15    1    1    2    0    0 -0.66832932183E+00 -0.73869709629E+00 -0.79274622488E+01  0.81850304940E+01  0.17770000000E+01 0.  1.
</event>
<event>
 6    1  0.3691007E-002  0.4731148E+02  0.7546771E-02  0.1309930E+00
        -11   -1    0    0    0    0  0.00000000000E+00  0.00000000000E+00  0.45600000000E+02  0.45600000000E+02  0.00000000000E+00 0.  1.
         11   -1    0    0    0    0 -0.00000000000E+00 -0.00000000000E+00 -0.45600000000E+02  0.45600000000E+02  0.00000000000E+00 0. -1.
        -11    1    1    2    0    0 -0.18459166609E+01  0.10369257243E+01  0.25416610165E+02  0.25504640667E+02  0.00000000000E+00 0.  1.
         11    1    1    2    0    0  0.42017691911E+00  0.16181567477E+01 -0.43856663660E+02  0.43888517032E+02  0.00000000000E+00 0. -1.
        -15    1    1    2    0    0  0.13374543473E+01  0.26842440940E+01  0.14558807722E+02  0.14970322701E+02  0.17770000000E+01 0.  1.
         15    1    1    2    0    0  0.88285394523E-01 -0.53393265660E+01  0.38812457737E+01  0.68365196003E+01  0.17770000000E+01 0.  1.
</event>
<event>
 6    1  0.3691007E-002  0.4591106E+02  0.7546771E-02  0.1316587E+00
        -11   -1    0    0    0    0  0.00000000000E+00  0.00000000000E+00  0.45600000000E+02  0.45600000000E+02  0.00000000000E+00 0.  1.
         11   -1    0    0    0    0 -0.00000000000E+00 -0.00000000000E+00 -0.45600000000E+02  0.45600000000E+02  0.00000000000E+00 0.  1.
        -11    1    1    2    0    0 -0.22786480482E+01 -0.33324984948E+00  0.45230355700E+02  0.45288943123E+02  0.00000000000E+00 0.  1.
         11    1    1    2    0    0  0.16655422697E+00  0.71116782788E+00 -0.28158203007E+02  0.28167674675E+02  0.00000000000E+00 0.  1.
        -15    1    1    2    0    0  0.23892675185E+01  0.47841826245E-01 -0.10033194320E+02  0.10465830373E+02  0.17770000000E+01 0.  1.
         15    1    1    2    0    0 -0.27717369726E+00 -0.42575980464E+00 -0.70389583726E+01  0.72775518302E+01  0.17770000000E+01 0.  1.
</event>
<event>
 6    1  0.3691007E-002  0.5414917E+02  0.7546771E-02  0.1280858E+00
        -11   -1    0    0    0    0  0.00000000000E+00  0.00000000000E+00  0.45600000000E+02  0.45600000000E+02  0.00000000000E+00 0.  1.
         11   -1    0    0    0    0 -0.00000000000E+00 -0.00000000000E+00 -0.45600000000E+02  0.45600000000E+02  0.00000000000E+00 0. -1.
        -11    1    1    2    0    0 -0.90472554234E+00 -0.57341045518E+00  0.29207198533E+02  0.29226833116E+02  0.00000000000E+00 0.  1.
         11    1    1    2    0    0  0.63722469832E+00 -0.83713406818E+00 -0.37035894295E+02  0.37050834201E+02  0.00000000000E+00 0. -1.
        -15    1    1    2    0    0 -0.33497572052E+01 -0.38640265150E+01 -0.68979623631E+01  0.87687620566E+01  0.17770000000E+01 0.  1.
         15    1    1    2    0    0  0.36172580492E+01  0.52745710384E+01  0.14726658126E+02  0.16153570626E+02  0.17770000000E+01 0. -1.
</event>
<event>
 6    1  0.3691007E-002  0.4629490E+02  0.7546771E-02  0.1314735E+00
        -11   -1    0    0    0    0  0.00000000000E+00  0.00000000000E+00  0.45600000000E+02  0.45600000000E+02  0.00000000000E+00 0.  1.
         11   -1    0    0    0    0 -0.00000000000E+00 -0.00000000000E+00 -0.45600000000E+02  0.45600000000E+02  0.00000000000E+00 0.  1.
        -11    1    1    2    0    0  0.43199758655E+00  0.14105719044E+01  0.44880863865E+02  0.44905103010E+02  0.00000000000E+00 0.  1.
         11    1    1    2    0    0  0.14126753681E+01 -0.85833258337E+00 -0.35764991845E+02  0.35803170644E+02  0.00000000000E+00 0.  1.
        -15    1    1    2    0    0 -0.44742970071E+00  0.81384635295E+00 -0.63854779539E+01  0.66928765806E+01  0.17770000000E+01 0. -1.
         15    1    1    2    0    0 -0.13972432539E+01 -0.13660856740E+01 -0.27303940665E+01  0.37988497651E+01  0.17770000000E+01 0. -1.
</event>
<event>
 6    1  0.3691007E-002  0.4654801E+02  0.7546771E-02  0.1313526E+00
        -11   -1    0    0    0    0  0.00000000000E+00  0.00000000000E+00  0.45600000000E+02  0.45600000000E+02  0.00000000000E+00 0. -1.
         11   -1    0    0    0    0 -0.00000000000E+00 -0.00000000000E+00 -0.45600000000E+02  0.45600000000E+02  0.00000000000E+00 0. -1.
        -11    1    1    2    0    0  0.25438565985E+00  0.84617001726E+00  0.44643251784E+02  0.44651994867E+02  0.00000000000E+00 0. -1.
         11    1    1    2    0    0  0.96933071718E+00  0.23819502561E+00 -0.37468424598E+02  0.37481717954E+02  0.00000000000E+00 0. -1.
        -15    1    1    2    0    0  0.13606994980E+01 -0.72141457279E+00 -0.25754538302E+01  0.34874967443E+01  0.17770000000E+01 0.  1.
         15    1    1    2    0    0 -0.25844158750E+01 -0.36295047008E+00 -0.45993733552E+01  0.55787904352E+01  0.17770000000E+01 0. -1.
</event>
<event>
 6    1  0.3691007E-002  0.4992866E+02  0.7546771E-02  0.1298174E+00
        -11   -1    0    0    0    0  0.00000000000E+00  0.00000000000E+00  0.45600000000E+02  0.45600000000E+02  0.00000000000E+00 0. -1.
         11   -1    0    0    0    0 -0.00000000000E+00 -0.00000000000E+00 -0.45600000000E+02  0.45600000000E+02  0.00000000000E+00 0.  1.
        -11    1    1    2    0    0 -0.15947559976E+01 -0.16548095757E+01  0.41207303281E+02  0.41271339755E+02  0.00000000000E+00 0. -1.
         11    1    1    2    0    0  0.77133655512E+00 -0.26059404794E+01 -0.36923725702E+02  0.37023606059E+02  0.00000000000E+00 0.  1.
        -15    1    1    2    0    0 -0.34872981961E+01  0.17840770591E+01  0.19613568605E+01  0.47274548539E+01  0.17770000000E+01 0.  1.
         15    1    1    2    0    0  0.43107176385E+01  0.24766729960E+01 -0.62449344398E+01  0.81775993327E+01  0.17770000000E+01 0.  1.
</event>
<event>
 6    1  0.3691007E-002  0.4218208E+02  0.7546771E-02  0.1335732E+00
        -11   -1    0    0    0    0  0.00000000000E+00  0.00000000000E+00  0.45600000000E+02  0.45600000000E+02  0.00000000000E+00 0.  1.
         11   -1    0    0    0    0 -0.00000000000E+00 -0.00000000000E+00 -0.45600000000E+02  0.45600000000E+02  0.00000000000E+00 0.  1.
        -11    1    1    2    0    0  0.20523932394E+01  0.82411782524E+00  0.40794163931E+02  0.40854073224E+02  0.00000000000E+00 0.  1.
         11    1    1    2    0    0  0.20189842554E+01  0.65044475469E+00 -0.43616737914E+02  0.43668285999E+02  0.00000000000E+00 0.  1.
        -15    1    1    2    0    0 -0.28133938381E+01 -0.86322276309E+00  0.27712559228E+01  0.44156456851E+01  0.17770000000E+01 0.  1.
         15    1    1    2    0    0 -0.12579836567E+01 -0.61133981684E+00  0.51318060658E-01  0.22619950919E+01  0.17770000000E+01 0. -1.
</event>
<event>
 6    1  0.3691007E-002  0.4942700E+02  0.7546771E-02  0.1300362E+00
        -11   -1    0    0    0    0  0.00000000000E+00  0.00000000000E+00  0.45600000000E+02  0.45600000000E+02  0.00000000000E+00 0.  1.
         11   -1    0    0    0    0 -0.00000000000E+00 -0.00000000000E+00 -0.45600000000E+02  0.45600000000E+02  0.00000000000E+00 0. -1.
        -11    1    1    2    0    0 -0.58213801870E+00  0.42221833746E+01  0.41554995142E+02  0.41772997719E+02  0.00000000000E+00 0.  1.
         11    1    1    2    0    0 -0.19617777582E+01 -0.25199636474E+00 -0.32145739790E+02  0.32206531338E+02  0.00000000000E+00 0. -1.
        -15    1    1    2    0    0  0.27429670793E+01  0.11208463868E+00 -0.11742901614E+02  0.12189745637E+02  0.17770000000E+01 0. -1.
         15    1    1    2    0    0 -0.19905130244E+00 -0.40822716485E+01  0.23336462624E+01  0.50307253067E+01  0.17770000000E+01 0. -1.
</event>
<event>
 6    1  0.3691007E-002  0.5128912E+02  0.7546771E-02  0.1292384E+00
        -11   -1    0    0    0    0  0.00000000000E+00  0.00000000000E+00  0.45600000000E+02  0.45600000000E+02  0.00000000000E+00 0. -1.
         11   -1    0    0    0    0 -0.00000000000E+00 -0.00000000000E+00 -0.45600000000E+02  0.45600000000E+02  0.00000000000E+00 0.  1.
        -11    1    1    2    0    0 -0.92130035360E+00  0.37683217108E+00  0.38687961485E+02  0.38700764343E+02  0.00000000000E+00 0. -1.
         11    1    1    2    0    0  0.42927579258E-01  0.72700715689E+00 -0.39904231342E+02  0.39910876477E+02  0.00000000000E+00 0.  1.
        -15    1    1    2    0    0 -0.35365859004E+01  0.46851856326E+00  0.49378260912E+01  0.63456130501E+01  0.17770000000E+01 0.  1.
         15    1    1    2    0    0  0.44149586748E+01 -0.15723578912E+01 -0.37215562344E+01  0.62427461300E+01  0.17770000000E+01 0. -1.
</event>
<event>
 6    1  0.3691007E-002  0.4647028E+02  0.7546771E-02  0.1313896E+00
        -11   -1    0    0    0    0  0.00000000000E+00  0.00000000000E+00  0.45600000000E+02  0.45600000000E+02  0.00000000000E+00 0.  1.
         11   -1    0    0    0    0 -0.00000000000E+00 -0.00000000000E+00 -0.45600000000E+02  0.45600000000E+02  0.00000000000E+00 0.  1.
        -11    1    1    2    0    0  0.14344082867E+01  0.13849088756E+01  0.36418922281E+02  0.36473461583E+02  0.00000000000E+00 0.  1.
         11    1    1    2    0    0 -0.12303321408E+01  0.90443585421E+00 -0.44703644956E+02  0.44729717122E+02  0.00000000000E+00 0.  1.
        -15    1    1    2    0    0 -0.10124950241E+01  0.25079253760E+00  0.16893216683E+01  0.26645036629E+01  0.17770000000E+01 0.  1.
         15    1    1    2    0    0  0.80841887821E+00 -0.25401372674E+01  0.65954010067E+01  0.73323176322E+01  0.17770000000E+01 0.  1.
</event>
<event>
 6    1  0.3691007E-002  0.4593184E+02  0.7546771E-02  0.1316486E+00
        -11   -1    0    0    0    0  0.00000000000E+00  0.00000000000E+00  0.45600000000E+02  0.45600000000E+02  0.00000000000E+00 0. -1.
         11   -1    0    0    0    0 -0.00000000000E+00 -0.00000000000E+00 -0.45600000000E+02  0.45600000000E+02  0.00000000000E+00 0.  1.
        -11    1    1    2    0    0  0.32462803422E+01  0.43035166169E+00  0.45149558283E+02  0.45268158254E+02  0.00000000000E+00 0. -1.
         11    1    1    2    0    0 -0.23257061236E+01  0.42875066828E+00 -0.32084691623E+02  0.32171729401E+02  0.00000000000E+00 0.  1.
        -15    1    1    2    0    0 -0.64559303071E+00 -0.24572837127E+00 -0.32915251490E+01  0.38038190809E+01  0.17770000000E+01 0.  1.
         15    1    1    2    0    0 -0.27498118795E+00 -0.61337395870E+00 -0.97733415104E+01  0.99562932633E+01  0.17770000000E+01 0.  1.
</event>
<event>
 6    1  0.3691007E-002  0.3611697E+02  0.7546771E-02  0.1372339E+00
        -11   -1    0    0    0    0  0.00000000000E+00  0.00000000000E+00  0.45600000000E+02  0.45600000000E+02  0.00000000000E+00 0. -1.
         11   -1    0    0    0    0 -0.00000000000E+00 -0.00000000000E+00 -0.45600000000E+02  0.45600000000E+02  0.00000000000E+00 0. -1.
        -11    1    1    2    0    0  0.53761268306E+00 -0.56178444462E+00  0.39144075273E+02  0.39151797637E+02  0.00000000000E+00 0. -1.
         11    1    1    2    0    0 -0.46228849622E+01  0.51476552272E+00 -0.10078619378E+02  0.11100207993E+02  0.00000000000E+00 0. -1.
        -15    1    1    2    0    0  0.49738324191E+00 -0.47735278792E+01 -0.33101160048E+02  0.33494454526E+02  0.17770000000E+01 0. -1.
         15    1    1    2    0    0  0.35878890373E+01  0.48205468011E+01  0.40357041523E+01  0.74535398443E+01  0.17770000000E+01 0.  1.
</event>
<event>
 6    1  0.3691007E-002  0.4871108E+02  0.7546771E-02  0.1303538E+00
        -11   -1    0    0    0    0  0.00000000000E+00  0.00000000000E+00  0.45600000000E+02  0.45600000000E+02  0.00000000000E+00 0. -1.
         11   -1    0    0    0    0 -0.00000000000E+00 -0.00000000000E+00 -0.45600000000E+02  0.45600000000E+02  0.00000000000E+00 0. -1.
        -11    1    1    2    0    0  0.16664785677E+01 -0.10201002160E+01  0.36363083492E+02  0.36415540588E+02  0.00000000000E+00 0. -1.
         11    1    1    2    0    0  0.16123575251E+01 -0.36140001421E+01 -0.42304224476E+02  0.42488917406E+02  0.00000000000E+00 0. -1.
        -15    1    1    2    0    0 -0.13248687502E+01  0.64722931846E+01  0.18433454457E+01  0.70853022310E+01  0.17770000000E+01 0. -1.
         15    1    1    2    0    0 -0.19539673426E+01 -0.18381928265E+01  0.40977955384E+01  0.52102397754E+01  0.17770000000E+01 0.  1.
</event>
<event>
 6    1  0.3691007E-002  0.4596816E+02  0.7546771E-02  0.1316310E+00
        -11   -1    0    0    0    0  0.00000000000E+00  0.00000000000E+00  0.45600000000E+02  0.45600000000E+02  0.00000000000E+00 0. -1.
         11   -1    0    0    0    0 -0.00000000000E+00 -0.00000000000E+00 -0.45600000000E+02  0.45600000000E+02  0.00000000000E+00 0. -1.
        -11    1    1    2    0    0  0.40171348575E+00 -0.96990052845E+00  0.24925316906E+02  0.24947414769E+02  0.00000000000E+00 0. -1.
         11    1    1    2    0    0  0.21506052851E+01 -0.18866786222E+00 -0.45180286758E+02  0.45231836246E+02  0.00000000000E+00 0. -1.
        -15    1    1    2    0    0 -0.84658656559E+00  0.64618172944E+00  0.34179548374E+01  0.39967992082E+01  0.17770000000E+01 0.  1.
         15    1    1    2    0    0 -0.17057322053E+01  0.51238666124E+00  0.16837015014E+02  0.17023949777E+02  0.17770000000E+01 0. -1.
</event>
<event>
 6    1  0.3691007E-002  0.4895154E+02  0.7546771E-02  0.1302464E+00
        -11   -1    0    0    0    0  0.00000000000E+00  0.00000000000E+00  0.45600000000E+02  0.45600000000E+02  0.00000000000E+00 0. -1.
         11   -1    0    0    0    0 -0.00000000000E+00 -0.00000000000E+00 -0.45600000000E+02  0.45600000000E+02  0.00000000000E+00 0. -1.
        -11    1    1    2    0    0 -0.12625297752E+01 -0.35572340995E+01  0.31409733988E+02  0.31635727984E+02  0.00000000000E+00 0. -1.
         11    1    1    2    0    0 -0.34715578536E+01 -0.66286704632E+01 -0.41580538746E+02  0.42248457824E+02  0.00000000000E+00 0. -1.
        -15    1    1    2    0    0 -0.13445651271E+00  0.72144538458E+01  0.81012783902E+01  0.10993400902E+02  0.17770000000E+01 0. -1.
         15    1    1    2    0    0  0.48685441415E+01  0.29714507169E+01  0.20695263679E+01  0.63224132899E+01  0.17770000000E+01 0.  1.
</event>
<event>
 6    1  0.3691007E-002  0.4767752E+02  0.7546771E-02  0.1308234E+00
        -11   -1    0    0    0    0  0.00000000000E+00  0.00000000000E+00  0.45600000000E+02  0.45600000000E+02  0.00000000000E+00 0.  1.
         11   -1    0    0    0    0 -0.00000000000E+00 -0.00000000000E+00 -0.45600000000E+02  0.45600000000E+02  0.00000000000E+00 0. -1.
        -11    1    1    2    0    0 -0.76588019600E+00  0.83624743812E+00  0.43507707821E+02  0.43522482949E+02  0.00000000000E+00 0.  1.
         11    1    1    2    0    0 -0.12167615596E+01 -0.79087600308E+00 -0.32432092568E+02  0.32464544074E+02  0.00000000000E+00 0. -1.
        -15    1    1    2    0    0  0.25165333433E+01 -0.35966084917E+01 -0.17249368691E+01  0.50400068366E+01  0.17770000000E+01 0. -1.
         15    1    1    2    0    0 -0.53389158771E+00  0.35512370566E+01 -0.93506783835E+01  0.10172966140E+02  0.17770000000E+01 0. -1.
</event>
<event>
 6    1  0.3691007E-002  0.4863530E+02  0.7546771E-02  0.1303877E+00
        -11   -1    0    0    0    0  0.00000000000E+00  0.00000000000E+00  0.45600000000E+02  0.45600000000E+02  0.00000000000E+00 0.  1.
         11   -1    0    0    0    0 -0.00000000000E+00 -0.00000000000E+00 -0.45600000000E+02  0.45600000000E+02  0.00000000000E+00 0.  1.
        -11    1    1    2    0    0 -0.26202866804E+00  0.13012092570E+01  0.40675716524E+02  0.40697367474E+02  0.00000000000E+00 0.  1.
         11    1    1    2    0    0  0.54538729873E+00  0.13591603299E+01 -0.42539496087E+02  0.42564697713E+02  0.00000000000E+00 0.  1.
        -15    1    1    2    0    0  0.23610897597E+01 -0.29084169749E+01  0.22526803742E+01  0.47186790547E+01  0.17770000000E+01 0.  1.
         15    1    1    2    0    0 -0.26444483904E+01  0.24804738794E+00 -0.38890081131E+00  0.32192557583E+01  0.17770000000E+01 0. -1.
</event>
<event>
 6    1  0.3691007E-002  0.4762663E+02  0.7546771E-02  0.1308469E+00
        -11   -1    0    0    0    0  0.00000000000E+00  0.00000000000E+00  0.45600000000E+02  0.45600000000E+02  0.00000000000E+00 0. -1.
         11   -1    0    0    0    0 -0.00000000000E+00 -0.00000000000E+00 -0.45600000000E+02  0.45600000000E+02  0.00000000000E+00 0.  1.
        -11    1    1    2    0    0  0.14484214920E+01 -0.16140188128E+01  0.42505677389E+02  0.42560963240E+02  0.00000000000E+00 0. -1.
         11    1    1    2    0    0 -0.17008303592E+01  0.21977832001E-01 -0.43540156188E+02  0.43573369250E+02  0.00000000000E+00 0.  1.
        -15    1    1    2    0    0 -0.10675938101E+01 -0.10192808245E+00  0.93515476210E+00  0.22764861753E+01  0.17770000000E+01 0.  1.
         15    1    1    2    0    0  0.13200026773E+01  0.16939690632E+01  0.99324036559E-01  0.27891813350E+01  0.17770000000E+01 0.  1.
</event>
<event>
 6    1  0.3691007E-002  0.4690569E+02  0.7546771E-02  0.1311832E+00
        -11   -1    0    0    0    0  0.00000000000E+00  0.00000000000E+00  0.45600000000E+02  0.45600000000E+02  0.00000000000E+00 0. -1.
         11   -1    0    0    0    0 -0.00000000000E+00 -0.00000000000E+00 -0.45600000000E+02  0.45600000000E+02  0.00000000000E+00 0. -1.
        -11    1    1    2    0    0  0.13142505200E+01  0.86391807323E+00  0.16174088525E+02  0.16250376872E+02  0.00000000000E+00 0. -1.
         11    1    1    2    0    0 -0.46932299548E+00  0.32525837309E+01 -0.44172233266E+02  0.44294308401E+02  0.00000000000E+00 0. -1.
        -15    1    1    2    0    0  0.32114618672E+01  0.17247471518E+01  0.45831327584E+01  0.61197283390E+01  0.17770000000E+01 0.  1.
         15    1    1    2    0    0 -0.40563893917E+01 -0.58412489560E+01  0.23415011983E+02  0.24535586388E+02  0.17770000000E+01 0. -1.
</event>
<event>
 6    1  0.3691007E-002  0.4634930E+02  0.7546771E-02  0.1314475E+00
        -11   -1    0    0    0    0  0.00000000000E+00  0.00000000000E+00  0.45600000000E+02  0.45600000000E+02  0.00000000000E+00 0. -1.
         11   -1    0    0    0    0 -0.00000000000E+00 -0.00000000000E+00 -0.45600000000E+02  0.45600000000E+02  0.00000000000E+00 0. -1.
        -11    1    1    2    0    0 -0.60993899886E+01 -0.80857730728E+00  0.44426670050E+02  0.44850700855E+02  0.00000000000E+00 0. -1.
         11    1    1    2    0    0 -0.13588772870E+01 -0.27301400505E+00 -0.18676810254E+02  0.18728169302E+02  0.00000000000E+00 0. -1.
        -15    1    1    2    0    0  0.28058289254E+01 -0.17278654168E+01 -0.61094614498E+01  0.71652943460E+01  0.17770000000E+01 0.  1.
         15    1    1    2    0    0  0.46524383502E+01  0.28094567292E+01 -0.19640398346E+02  0.20455835497E+02  0.17770000000E+01 0. -1.
</event>
<event>
 6    1  0.3691007E-002  0.4612119E+02  0.7546771E-02  0.1315571E+00
        -11   -1    0    0    0    0  0.00000000000E+00  0.00000000000E+00  0.45600000000E+02  0.45600000000E+02  0.00000000000E+00 0.  1.
         11   -1    0    0    0    0 -0.00000000000E+00 -0.00000000000E+00 -0.45600000000E+02  0.45600000000E+02  0.00000000000E+00 0. -1.
        -11    1    1    2    0    0 -0.80674349372E+00 -0.11414108043E+00  0.32416881227E+02  0.32427119079E+02  0.00000000000E+00 0.  1.
         11    1    1    2    0    0  0.35370615426E+01  0.45605656650E+00 -0.44937510763E+02  0.45078805058E+02  0.00000000000E+00 0. -1.
        -15    1    1    2    0    0 -0.15331962658E+01 -0.22958546652E+00  0.24621119140E+01  0.34092703549E+01  0.17770000000E+01 0. -1.
         15    1    1    2    0    0 -0.11971217831E+01 -0.11233001956E+00  0.10058517621E+02  0.10284805508E+02  0.17770000000E+01 0.  1.
</event>
<event>
 6    1  0.3691007E-002  0.4635425E+02  0.7546771E-02  0.1314451E+00
        -11   -1    0    0    0    0  0.00000000000E+00  0.00000000000E+00  0.45600000000E+02  0.45600000000E+02  0.00000000000E+00 0. -1.
         11   -1    0    0    0    0 -0.00000000000E+00 -0.00000000000E+00 -0.45600000000E+02  0.45600000000E+02  0.00000000000E+00 0.  1.
        -11    1    1    2    0    0 -0.55036412175E+00 -0.86620049384E+00  0.44834003266E+02  0.44845747321E+02  0.00000000000E+00 0. -1.
         11    1    1    2    0    0  0.11412856767E+01  0.15923551310E+01 -0.30868319750E+02  0.30930426639E+02  0.00000000000E+00 0.  1.
        -15    1    1    2    0    0  0.12550258656E+01 -0.23058887741E+00 -0.14166980038E+01  0.26063429144E+01  0.17770000000E+01 0. -1.
         15    1    1    2    0    0 -0.18459474205E+01 -0.49556575977E+00 -0.12548985512E+02  0.12817483126E+02  0.17770000000E+01 0.  1.
</event>
<event>
 6    1  0.3691007E-002  0.4763261E+02  0.7546771E-02  0.1308441E+00
        -11   -1    0    0    0    0  0.00000000000E+00  0.00000000000E+00  0.45600000000E+02  0.45600000000E+02  0.00000000000E+00 0. -1.
         11   -1    0    0    0    0 -0.00000000000E+00 -0.00000000000E+00 -0.45600000000E+02  0.45600000000E+02  0.00000000000E+00 0. -1.
        -11    1    1    2    0    0 -0.33063163947E+01 -0.46781257270E+00  0.34602683944E+02  0.34763433559E+02  0.00000000000E+00 0. -1.
         11    1    1    2    0    0  0.76591682429E-01 -0.12888012085E+01 -0.43548260274E+02  0.43567394319E+02  0.00000000000E+00 0. -1.
        -15    1    1    2    0    0 -0.68399710739E+00  0.22987450192E+01  0.78530961583E+01  0.84012456801E+01  0.17770000000E+01 0.  1.
         15    1    1    2    0    0  0.39137218196E+01 -0.54213123805E+00  0.10924801722E+01  0.44679264416E+01  0.17770000000E+01 0.  1.
</event>
<event>
 6    1  0.3691007E-002  0.3362875E+02  0.7546771E-02  0.1389873E+00
        -11   -1    0    0    0    0  0.00000000000E+00  0.00000000000E+00  0.45600000000E+02  0.45600000000E+02  0.00000000000E+00 0.  1.
         11   -1    0    0    0    0 -0.00000000000E+00 -0.00000000000E+00 -0.45600000000E+02  0.45600000000E+02  0.00000000000E+00 0. -1.
        -11    1    1    2    0    0  0.14888172720E+00  0.10252802371E+01  0.10810926202E+02  0.10860455363E+02  0.00000000000E+00 0.  1.
         11    1    1    2    0    0  0.89782007555E+00  0.79966049447E-01 -0.41885016681E+02  0.41894714438E+02  0.00000000000E+00 0. -1.
        -15    1    1    2    0    0 -0.65819341182E+00  0.90088678707E+01  0.51282435979E+01  0.10538004094E+02  0.17770000000E+01 0. -1.
         15    1    1    2    0    0 -0.38850839093E+00 -0.10114114157E+02  0.25945846881E+02  0.27906826106E+02  0.17770000000E+01 0.  1.
</event>
<event>
 6    1  0.3691007E-002  0.4587450E+02  0.7546771E-02  0.1316764E+00
        -11   -1    0    0    0    0  0.00000000000E+00  0.00000000000E+00  0.45600000000E+02  0.45600000000E+02  0.00000000000E+00 0. -1.
         11   -1    0    0    0    0 -0.00000000000E+00 -0.00000000000E+00 -0.45600000000E+02  0.45600000000E+02  0.00000000000E+00 0. -1.
        -11    1    1    2    0    0 -0.75927709764E+00 -0.24411515477E+00  0.45318481803E+02  0.45325499301E+02  0.00000000000E+00 0. -1.
         11    1    1    2    0    0  0.10745009633E+01  0.18181332150E+01 -0.99882479518E+01  0.10209077228E+02  0.00000000000E+00 0. -1.
        -15    1    1    2    0    0 -0.13046870275E+01 -0.90408109465E+00 -0.11813412183E+02  0.12051307285E+02  0.17770000000E+01 0.  1.
         15    1    1    2    0    0  0.98946316187E+00 -0.66993696555E+00 -0.23516821668E+02  0.23614116186E+02  0.17770000000E+01 0. -1.
</event>
<event>
 6    1  0.3691007E-002  0.4599751E+02  0.7546771E-02  0.1316168E+00
        -11   -1    0    0    0    0  0.00000000000E+00  0.00000000000E+00  0.45600000000E+02  0.45600000000E+02  0.00000000000E+00 0.  1.
         11   -1    0    0    0    0 -0.00000000000E+00 -0.00000000000E+00 -0.45600000000E+02  0.45600000000E+02  0.00000000000E+00 0.  1.
        -11    1    1    2    0    0  0.62304516431E+00  0.14119143455E+00  0.27699981811E+02  0.27707347629E+02  0.00000000000E+00 0.  1.
         11    1    1    2    0    0  0.92915300382E+00  0.75475366933E+00 -0.45186636004E+02  0.45202489442E+02  0.00000000000E+00 0.  1.
        -15    1    1    2    0    0 -0.87079072456E+00 -0.21895070503E+01  0.79591410372E+01  0.84886908684E+01  0.17770000000E+01 0.  1.
         15    1    1    2    0    0 -0.68140744358E+00  0.12935619464E+01  0.95275131561E+01  0.98014720605E+01  0.17770000000E+01 0.  1.
</event>
<event>
 6    1  0.3691007E-002  0.4031617E+02  0.7546771E-02  0.1346192E+00
        -11   -1    0    0    0    0  0.00000000000E+00  0.00000000000E+00  0.45600000000E+02  0.45600000000E+02  0.00000000000E+00 0.  1.
         11   -1    0    0    0    0 -0.00000000000E+00 -0.00000000000E+00 -0.45600000000E+02  0.45600000000E+02  0.00000000000E+00 0. -1.
        -11    1    1    2    0    0  0.19698615999E+01  0.13752977470E+01  0.39785651822E+02  0.39858122002E+02  0.00000000000E+00 0.  1.
         11    1    1    2    0    0  0.75724675279E+00 -0.14752896132E+01 -0.40792987136E+02  0.40826678796E+02  0.00000000000E+00 0. -1.
        -15    1    1    2    0    0 -0.46753897116E+01  0.25524107863E+01  0.30344415966E+01  0.63827607334E+01  0.17770000000E+01 0.  1.
         15    1    1    2    0    0  0.19482813589E+01 -0.24524189201E+01 -0.20271062831E+01  0.41324384685E+01  0.17770000000E+01 0.  1.
</event>
<event>
 6    1  0.3691007E-002  0.5086758E+02  0.7546771E-02  0.1294156E+00
        -11   -1    0    0    0    0  0.00000000000E+00  0.00000000000E+00  0.45600000000E+02  0.45600000000E+02  0.00000000000E+00 0.  1.
         11   -1    0    0    0    0 -0.00000000000E+00 -0.00000000000E+00 -0.45600000000E+02  0.45600000000E+02  0.00000000000E+00 0. -1.
        -11    1    1    2    0    0  0.33379523412E+01 -0.80935329091E+00  0.27523845570E+02  0.27737322394E+02  0.00000000000E+00 0.  1.
         11    1    1    2    0    0 -0.78219862855E+01  0.42734399193E+00 -0.39564356250E+02  0.40332423407E+02  0.00000000000E+00 0. -1.
        -15    1    1    2    0    0  0.11220763383E+02  0.36294115357E+01  0.86281139904E+01  0.14720062467E+02  0.17770000000E+01 0.  1.
         15    1    1    2    0    0 -0.67367294388E+01 -0.32474022367E+01  0.34123966896E+01  0.84101917330E+01  0.17770000000E+01 0. -1.
</event>
<event>
 6    1  0.3691007E-002  0.4871121E+02  0.7546771E-02  0.1303537E+00
        -11   -1    0    0    0    0  0.00000000000E+00  0.00000000000E+00  0.45600000000E+02  0.45600000000E+02  0.00000000000E+00 0.  1.
         11   -1    0    0    0    0 -0.00000000000E+00 -0.00000000000E+00 -0.45600000000E+02  0.45600000000E+02  0.00000000000E+00 0. -1.
        -11    1    1    2    0    0  0.14419442617E+01 -0.10228216351E+01  0.29851846423E+02  0.29904148579E+02  0.00000000000E+00 0.  1.
         11    1    1    2    0    0 -0.98651309595E+00  0.96392784993E+00 -0.42466396476E+02  0.42488789046E+02  0.00000000000E+00 0. -1.
        -15    1    1    2    0    0 -0.14301965799E+01 -0.86004198402E+00 -0.25221084782E+01  0.35076907855E+01  0.17770000000E+01 0. -1.
         15    1    1    2    0    0  0.97476541417E+00  0.91893576920E+00  0.15136658531E+02  0.15299371590E+02  0.17770000000E+01 0.  1.
</event>
<event>
 6    1  0.3691007E-002  0.4144135E+02  0.7546771E-02  0.1339808E+00
        -11   -1    0    0    0    0  0.00000000000E+00  0.00000000000E+00  0.45600000000E+02  0.45600000000E+02  0.00000000000E+00 0.  1.
         11   -1    0    0    0    0 -0.00000000000E+00 -0.00000000000E+00 -0.45600000000E+02  0.45600000000E+02  0.00000000000E+00 0. -1.
        -11    1    1    2    0    0  0.12105261767E+01  0.15521036068E+01  0.41100415903E+02  0.41147522241E+02  0.00000000000E+00 0.  1.
         11    1    1    2    0    0  0.86159817505E+00 -0.11569189580E+00 -0.41767142474E+02  0.41776188511E+02  0.00000000000E+00 0. -1.
        -15    1    1    2    0    0 -0.40879732318E+01 -0.58238556658E+00  0.22664449585E+01  0.50344016370E+01  0.17770000000E+01 0. -1.
         15    1    1    2    0    0  0.20158488801E+01 -0.85402614441E+00 -0.15997183868E+01  0.32418876106E+01  0.17770000000E+01 0.  1.
</event>
<event>
 6    1  0.3691007E-002  0.3946725E+02  0.7546771E-02  0.1351171E+00
        -11   -1    0    0    0    0  0.00000000000E+00  0.00000000000E+00  0.45600000000E+02  0.45600000000E+02  0.00000000000E+00 0.  1.
         11   -1    0    0    0    0 -0.00000000000E+00 -0.00000000000E+00 -0.45600000000E+02  0.45600000000E+02  0.00000000000E+00 0.  1.
        -11    1    1    2    0    0  0.34902125020E+01  0.23753461401E+00  0.39558188445E+02  0.39712570794E+02  0.00000000000E+00 0.  1.
         11    1    1    2    0    0 -0.16162931598E-01 -0.12223207363E+01 -0.39285937603E+02  0.39304951629E+02  0.00000000000E+00 0.  1.
        -15    1    1    2    0    0 -0.26957905646E+01  0.41750463753E+00  0.53194713467E+01  0.62366738971E+01  0.17770000000E+01 0. -1.
         15    1    1    2    0    0 -0.77825900586E+00  0.56728148473E+00 -0.55917221892E+01  0.59458036802E+01  0.17770000000E+01 0. -1.
</event>
<event>
 6    1  0.3691007E-002  0.4674832E+02  0.7546771E-02  0.1312575E+00
        -11   -1    0    0    0    0  0.00000000000E+00  0.00000000000E+00  0.45600000000E+02  0.45600000000E+02  0.00000000000E+00 0.  1.
         11   -1    0    0    0    0 -0.00000000000E+00 -0.00000000000E+00 -0.45600000000E+02  0.45600000000E+02  0.00000000000E+00 0. -1.
        -11    1    1    2    0    0  0.11211511803E+01 -0.72804333373E+00  0.44431571704E+02  0.44451677034E+02  0.00000000000E+00 0.  1.
         11    1    1    2    0    0 -0.25330575097E+01 -0.43284591351E+00 -0.60966318453E+01  0.66160906727E+01  0.00000000000E+00 0. -1.
        -15    1    1    2    0    0  0.23908053637E+00  0.13739701883E+01 -0.60076291355E+00  0.23374342043E+01  0.17770000000E+01 0.  1.
         15    1    1    2    0    0  0.11728257931E+01 -0.21308094109E+00 -0.37734176945E+02  0.37794798089E+02  0.17770000000E+01 0. -1.
</event>
<event>
 6    1  0.3691007E-002  0.4715222E+02  0.7546771E-02  0.1310674E+00
        -11   -1    0    0    0    0  0.00000000000E+00  0.00000000000E+00  0.45600000000E+02  0.45600000000E+02  0.00000000000E+00 0.  1.
         11   -1    0    0    0    0 -0.00000000000E+00 -0.00000000000E+00 -0.45600000000E+02  0.45600000000E+02  0.00000000000E+00 0.  1.
        -11    1    1    2    0    0 -0.50533244414E+01 -0.25964526067E+01  0.43679854411E+02  0.44047784683E+02  0.00000000000E+00 0.  1.
         11    1    1    2    0    0  0.10114983501E+01  0.11498364602E+01 -0.29178370027E+02  0.29218530597E+02  0.00000000000E+00 0.  1.
        -15    1    1    2    0    0 -0.22328985581E+01  0.26464509960E+01 -0.60052829440E+01  0.71561645511E+01  0.17770000000E+01 0.  1.
         15    1    1    2    0    0  0.62747246494E+01 -0.11998348495E+01 -0.84962014401E+01  0.10777520169E+02  0.17770000000E+01 0. -1.
</event>
<event>
 6    1  0.3691007E-002  0.4647168E+02  0.7546771E-02  0.1313890E+00
        -11   -1    0    0    0    0  0.00000000000E+00  0.00000000000E+00  0.45600000000E+02  0.45600000000E+02  0.00000000000E+00 0. -1.
         11   -1    0    0    0    0 -0.00000000000E+00 -0.00000000000E+00 -0.45600000000E+02  0.45600000000E+02  0.00000000000E+00 0.  1.
        -11    1    1    2    0    0 -0.49917934131E+00 -0.19330341161E+01  0.31930562377E+02  0.31992915069E+02  0.00000000000E+00 0. -1.
         11    1    1    2    0    0  0.44882544019E+01  0.97877503634E+00 -0.44491801669E+02  0.44728322614E+02  0.00000000000E+00 0.  1.
        -15    1    1    2    0    0 -0.38428751035E+01 -0.18741453863E+00  0.11165921158E+02  0.11943129305E+02  0.17770000000E+01 0.  1.
         15    1    1    2    0    0 -0.14619995711E+00  0.11416736184E+01  0.13953181339E+01  0.25356330123E+01  0.17770000000E+01 0. -1.
</event>
<event>
 6    1  0.3691007E-002  0.4711845E+02  0.7546771E-02  0.1310832E+00
        -11   -1    0    0    0    0  0.00000000000E+00  0.00000000000E+00  0.45600000000E+02  0.45600000000E+02  0.00000000000E+00 0.  1.
         11   -1    0    0    0    0 -0.00000000000E+00 -0.00000000000E+00 -0.45600000000E+02  0.45600000000E+02  0.00000000000E+00 0. -1.
        -11    1    1    2    0    0 -0.86085489324E+00 -0.78720134981E-01  0.41987522270E+02  0.41996420019E+02  0.00000000000E+00 0.  1.
         11    1    1    2    0    0  0.37810657989E+00  0.89732786564E+00 -0.44070797265E+02  0.44081553210E+02  0.00000000000E+00 0. -1.
        -15    1    1    2    0    0  0.15674202163E+01 -0.31178241466E+00  0.45978907146E+00  0.24337521235E+01  0.17770000000E+01 0. -1.
         15    1    1    2    0    0 -0.10846719029E+01 -0.50682531600E+00  0.16234859230E+01  0.26882746475E+01  0.17770000000E+01 0.  1.
</event>
<event>
 6    1  0.3691007E-002  0.4580428E+02  0.7546771E-02  0.1317105E+00
        -11   -1    0    0    0    0  0.00000000000E+00  0.00000000000E+00  0.45600000000E+02  0.45600000000E+02  0.00000000000E+00 0. -1.
         11   -1    0    0    0    0 -0.00000000000E+00 -0.00000000000E+00 -0.45600000000E+02  0.45600000000E+02  0.00000000000E+00 0.  1.
        -11    1    1    2    0    0 -0.23222508110E+00  0.20957423976E+01  0.45346720962E+02  0.45395717493E+02  0.00000000000E+00 0. -1.
         11    1    1    2    0    0  0.98202494100E+00 -0.57416225632E+00 -0.11670389073E+02  0.11725698972E+02  0.00000000000E+00 0.  1.
        -15    1    1    2    0    0 -0.49148512208E+00 -0.24343429752E+01 -0.16086097003E+02  0.16373387834E+02  0.17770000000E+01 0. -1.
         15    1    1    2    0    0 -0.25831473782E+00  0.91276283391E+00 -0.17590234886E+02  0.17705195701E+02  0.17770000000E+01 0.  1.
</event>
<event>
 6    1  0.3691007E-002  0.4751098E+02  0.7546771E-02  0.1309004E+00
        -11   -1    0    0    0    0  0.00000000000E+00  0.00000000000E+00  0.45600000000E+02  0.45600000000E+02  0.00000000000E+00 0. -1.
         11   -1    0    0    0    0 -0.00000000000E+00 -0.00000000000E+00 -0.45600000000E+02  0.45600000000E+02  0.00000000000E+00 0. -1.
        -11    1    1    2    0    0  0.28121936240E+00  0.60655685298E+00  0.43683907673E+02  0.43689023623E+02  0.00000000000E+00 0. -1.
         11    1    1    2    0    0  0.74126575274E+00  0.13625762037E+00 -0.39812679355E+02  0.39819812638E+02  0.00000000000E+00 0. -1.
        -15    1    1    2    0    0 -0.74901897430E+00  0.17458089791E+01  0.18062705101E+00  0.26075339972E+01  0.17770000000E+01 0. -1.
         15    1    1    2    0    0 -0.27346614085E+00 -0.24886234524E+01 -0.40518553690E+01  0.50836297415E+01  0.17770000000E+01 0.  1.
</event>
<event>
 6    1  0.3691007E-002  0.4664062E+02  0.7546771E-02  0.1313085E+00
        -11   -1    0    0    0    0  0.00000000000E+00  0.00000000000E+00  0.45600000000E+02  0.45600000000E+02  0.00000000000E+00 0. -1.
         11   -1    0    0    0    0 -0.00000000000E+00 -0.00000000000E+00 -0.45600000000E+02  0.45600000000E+02  0.00000000000E+00 0. -1.
        -11    1    1    2    0    0  0.92669913119E+00  0.32303099371E+00  0.44548570584E+02  0.44559379051E+02  0.00000000000E+00 0. -1.
         11    1    1    2    0    0  0.27612159968E+00 -0.65256331902E+00 -0.33462900073E+02  0.33470401302E+02  0.00000000000E+00 0. -1.
        -15    1    1    2    0    0  0.19626268373E+01  0.83208017369E+00 -0.76849072256E+01  0.81706664100E+01  0.17770000000E+01 0. -1.
         15    1    1    2    0    0 -0.31654475682E+01 -0.50254784839E+00 -0.34007632852E+01  0.49995532369E+01  0.17770000000E+01 0. -1.
</event>
<event>
 6    1  0.3691007E-002  0.4749608E+02  0.7546771E-02  0.1309073E+00
        -11   -1    0    0    0    0  0.00000000000E+00  0.00000000000E+00  0.45600000000E+02  0.45600000000E+02  0.00000000000E+00 0. -1.
         11   -1    0    0    0    0 -0.00000000000E+00 -0.00000000000E+00 -0.45600000000E+02  0.45600000000E+02  0.00000000000E+00 0. -1.
        -11    1    1    2    0    0 -0.17174885378E+01  0.52845990105E-01  0.43670126917E+02  0.43703919098E+02  0.00000000000E+00 0. -1.
         11    1    1    2    0    0 -0.87329305003E+00  0.52766603961E-01 -0.22801424004E+02  0.22818202420E+02  0.00000000000E+00 0. -1.
        -15    1    1    2    0    0 -0.48130135174E+01 -0.10493383806E+01 -0.61339874385E+01  0.80653419674E+01  0.17770000000E+01 0. -1.
         15    1    1    2    0    0  0.74037951053E+01  0.94372578649E+00 -0.14734715474E+02  0.16612536514E+02  0.17770000000E+01 0. -1.
</event>
<event>
 6    1  0.3691007E-002  0.4746098E+02  0.7546771E-02  0.1309235E+00
        -11   -1    0    0    0    0  0.00000000000E+00  0.00000000000E+00  0.45600000000E+02  0.45600000000E+02  0.00000000000E+00 0.  1.
         11   -1    0    0    0    0 -0.00000000000E+00 -0.00000000000E+00 -0.45600000000E+02  0.45600000000E+02  0.00000000000E+00 0.  1.
        -11    1    1    2    0    0 -0.28214537806E+01 -0.83520478031E+00  0.43639935113E+02  0.43739022681E+02  0.00000000000E+00 0.  1.
         11    1    1    2    0    0  0.18336996319E+01 -0.14700748612E+01 -0.38650649758E+02  0.38722038959E+02  0.00000000000E+00 0.  1.
        -15    1    1    2    0    0 -0.15617267101E+01 -0.32941312708E+00 -0.38111843721E+01  0.44978170976E+01  0.17770000000E+01 0.  1.
         15    1    1    2    0    0  0.25494808587E+01  0.26346927686E+01 -0.11781009826E+01  0.42411212620E+01  0.17770000000E+01 0.  1.
</event>
<event>
 6    1  0.3691007E-002  0.4649508E+02  0.7546771E-02  0.1313778E+00
        -11   -1    0    0    0    0  0.00000000000E+00  0.00000000000E+00  0.45600000000E+02  0.45600000000E+02  0.00000000000E+00 0.  1.
         11   -1    0    0    0    0 -0.00000000000E+00 -0.00000000000E+00 -0.45600000000E+02  0.45600000000E+02  0.00000000000E+00 0. -1.
        -11    1    1    2    0    0 -0.40513662374E+00 -0.17093664837E+01  0.39586364349E+02  0.39625324123E+02  0.00000000000E+00 0.  1.
         11    1    1    2    0    0  0.28327276920E+01  0.67420444332E+00 -0.44609988904E+02  0.44704921516E+02  0.00000000000E+00 0. -1.
        -15    1    1    2    0    0 -0.40812355595E+00  0.56667658006E+00  0.25488105682E+01  0.31846273716E+01  0.17770000000E+01 0.  1.
         15    1    1    2    0    0 -0.20194675123E+01  0.46848546029E+00  0.24748139862E+01  0.36851269891E+01  0.17770000000E+01 0. -1.
</event>
<event>
 6    1  0.3691007E-002  0.4774497E+02  0.7546771E-02  0.1307923E+00
        -11   -1    0    0    0    0  0.00000000000E+00  0.00000000000E+00  0.45600000000E+02  0.45600000000E+02  0.00000000000E+00 0. -1.
         11   -1    0    0    0    0 -0.00000000000E+00 -0.00000000000E+00 -0.45600000000E+02  0.45600000000E+02  0.00000000000E+00 0. -1.
        -11    1    1    2    0    0 -0.30884717796E+01  0.13110077065E+01  0.39812898557E+02  0.39954027214E+02  0.00000000000E+00 0. -1.
         11    1    1    2    0    0  0.74080768818E+00  0.13915731772E+01 -0.43426423123E+02  0.43455028446E+02  0.00000000000E+00 0. -1.
        -15    1    1    2    0    0  0.20325964022E+01 -0.18410653422E+01  0.45344614487E+01  0.55892789658E+01  0.17770000000E+01 0. -1.
         15    1    1    2    0    0  0.31506768924E+00 -0.86151554153E+00 -0.92093688223E+00  0.22016653738E+01  0.17770000000E+01 0.  1.
</event>
<event>
 6    1  0.3691007E-002  0.4662448E+02  0.7546771E-02  0.1313162E+00
        -11   -1    0    0    0    0  0.00000000000E+00  0.00000000000E+00  0.45600000000E+02  0.45600000000E+02  0.00000000000E+00 0. -1.
         11   -1    0    0    0    0 -0.00000000000E+00 -0.00000000000E+00 -0.45600000000E+02  0.45600000000E+02  0.00000000000E+00 0. -1.
        -11    1    1    2    0    0 -0.11555071241E+01 -0.59533965043E-01  0.44560505008E+02  0.44575524086E+02  0.00000000000E+00 0. -1.
         11    1    1    2    0    0  0.43270713957E-01  0.22007329299E+01 -0.32660503400E+02  0.32734593019E+02  0.00000000000E+00 0. -1.
        -15    1    1    2    0    0 -0.91997919840E+00  0.15863102450E+01 -0.45607389180E+01  0.52269312601E+01  0.17770000000E+01 0.  1.
         15    1    1    2    0    0  0.20322156085E+01 -0.37275092099E+01 -0.73392626897E+01  0.86629516343E+01  0.17770000000E+01 0.  1.
</event>
<event>
 6    1  0.3691007E-002  0.4656580E+02  0.7546771E-02  0.1313441E+00
        -11   -1    0    0    0    0  0.00000000000E+00  0.00000000000E+00  0.45600000000E+02  0.45600000000E+02  0.00000000000E+00 0. -1.
         11   -1    0    0    0    0 -0.00000000000E+00 -0.00000000000E+00 -0.45600000000E+02  0.45600000000E+02  0.00000000000E+00 0. -1.
        -11    1    1    2    0    0 -0.21140762141E+00  0.76963557287E+00  0.28007254005E+02  0.28018624323E+02  0.00000000000E+00 0. -1.
         11    1    1    2    0    0 -0.79413141893E+00 -0.12967007831E+01 -0.44608288381E+02  0.44634196195E+02  0.00000000000E+00 0. -1.
        -15    1    1    2    0    0 -0.49433688186E+00  0.30509770349E+01  0.34699686617E+01  0.49750619427E+01  0.17770000000E+01 0. -1.
         15    1    1    2    0    0  0.14998759222E+01 -0.25239118247E+01  0.13131065715E+02  0.13572117539E+02  0.17770000000E+01 0.  1.
</event>
<event>
 6    1  0.3691007E-002  0.4640592E+02  0.7546771E-02  0.1314204E+00
        -11   -1    0    0    0    0  0.00000000000E+00  0.00000000000E+00  0.45600000000E+02  0.45600000000E+02  0.00000000000E+00 0.  1.
         11   -1    0    0    0    0 -0.00000000000E+00 -0.00000000000E+00 -0.45600000000E+02  0.45600000000E+02  0.00000000000E+00 0. -1.
        -11    1    1    2    0    0  0.24822265343E+00  0.19058287808E+01  0.44752829703E+02  0.44794079567E+02  0.00000000000E+00 0.  1.
         11    1    1    2    0    0  0.10259369307E+01  0.46492839848E+00 -0.30210287212E+02  0.30231277816E+02  0.00000000000E+00 0. -1.
        -15    1    1    2    0    0  0.58920190236E+00 -0.46986057872E+00 -0.11808871055E+02  0.11965579486E+02  0.17770000000E+01 0.  1.
         15    1    1    2    0    0 -0.18633614865E+01 -0.19008966005E+01 -0.27336714364E+01  0.42090631306E+01  0.17770000000E+01 0. -1.
</event>
<event>
 6    1  0.3691007E-002  0.4932707E+02  0.7546771E-02  0.1300802E+00
        -11   -1    0    0    0    0  0.00000000000E+00  0.00000000000E+00  0.45600000000E+02  0.45600000000E+02  0.00000000000E+00 0. -1.
         11   -1    0    0    0    0 -0.00000000000E+00 -0.00000000000E+00 -0.45600000000E+02  0.45600000000E+02  0.00000000000E+00 0.  1.
        -11    1    1    2    0    0  0.43274815999E+01 -0.48082954421E+01  0.18883722908E+02  0.19961006812E+02  0.00000000000E+00 0. -1.
         11    1    1    2    0    0  0.26172290618E+01 -0.22291706755E+01 -0.41731563592E+02  0.41872932662E+02  0.00000000000E+00 0.  1.
        -15    1    1    2    0    0  0.17937119742E-01 -0.44799250993E+01  0.50332177389E+01  0.69685766440E+01  0.17770000000E+01 0. -1.
         15    1    1    2    0    0 -0.69626477815E+01  0.11517391217E+02  0.17814622945E+02  0.22397483882E+02  0.17770000000E+01 0. -1.
</event>
<event>
 6    1  0.3691007E-002  0.4670880E+02  0.7546771E-02  0.1312762E+00
        -11   -1    0    0    0    0  0.00000000000E+00  0.00000000000E+00  0.45600000000E+02  0.45600000000E+02  0.00000000000E+00 0. -1.
         11   -1    0    0    0    0 -0.00000000000E+00 -0.00000000000E+00 -0.45600000000E+02  0.45600000000E+02  0.00000000000E+00 0.  1.
        -11    1    1    2    0    0 -0.35498669749E+00 -0.14714827653E+01  0.21854542371E+02  0.21906900724E+02  0.00000000000E+00 0. -1.
         11    1    1    2    0    0 -0.26630307432E-01  0.74981058535E+00 -0.44484870664E+02  0.44491197366E+02  0.00000000000E+00 0.  1.
        -15    1    1    2    0    0 -0.13035943625E+01  0.19734423984E+01  0.21696591787E+02  0.21897343614E+02  0.17770000000E+01 0. -1.
         15    1    1    2    0    0  0.16852113674E+01 -0.12517702184E+01  0.93373650513E+00  0.29045582958E+01  0.17770000000E+01 0.  1.
</event>
<event>
 6    1  0.3691007E-002  0.3542013E+02  0.7546771E-02  0.1377079E+00
        -11   -1    0    0    0    0  0.00000000000E+00  0.00000000000E+00  0.45600000000E+02  0.45600000000E+02  0.00000000000E+00 0. -1.
         11   -1    0    0    0    0 -0.00000000000E+00 -0.00000000000E+00 -0.45600000000E+02  0.45600000000E+02  0.00000000000E+00 0. -1.
        -11    1    1    2    0    0  0.27481687520E+00  0.45070889348E+00  0.34953153177E+02  0.34957139183E+02  0.00000000000E+00 0. -1.
         11    1    1    2    0    0  0.71881592224E+00  0.19719749306E+01 -0.35876174002E+02  0.35937518591E+02  0.00000000000E+00 0. -1.
        -15    1    1    2    0    0 -0.39925412923E+01 -0.63288717433E+01  0.82636789016E+01  0.11288982306E+02  0.17770000000E+01 0.  1.
         15    1    1    2    0    0  0.29989084949E+01  0.39061879191E+01 -0.73406580767E+01  0.90163599207E+01  0.17770000000E+01 0. -1.
</event>
<event>
 6    1  0.3691007E-002  0.3732246E+02  0.7546771E-02  0.1364426E+00
        -11   -1    0    0    0    0  0.00000000000E+00  0.00000000000E+00  0.45600000000E+02  0.45600000000E+02  0.00000000000E+00 0.  1.
         11   -1    0    0    0    0 -0.00000000000E+00 -0.00000000000E+00 -0.45600000000E+02  0.45600000000E+02  0.00000000000E+00 0.  1.
        -11    1    1    2    0    0  0.12547414262E+01 -0.17067014991E+01  0.68469636623E+01  0.71671554641E+01  0.00000000000E+00 0.  1.
         11    1    1    2    0    0  0.62790265746E+00  0.27094496777E+00 -0.42424603976E+02  0.42430115431E+02  0.00000000000E+00 0.  1.
        -15    1    1    2    0    0 -0.35932232543E+01  0.84064290573E+01  0.32114576980E+02  0.33437749422E+02  0.17770000000E+01 0. -1.
         15    1    1    2    0    0  0.17105791706E+01 -0.69706725260E+01  0.34630633344E+01  0.81649796829E+01  0.17770000000E+01 0.  1.
</event>
<event>
 6    1  0.3691007E-002  0.4871345E+02  0.7546771E-02  0.1303527E+00
        -11   -1    0    0    0    0  0.00000000000E+00  0.00000000000E+00  0.45600000000E+02  0.45600000000E+02  0.00000000000E+00 0.  1.
         11   -1    0    0    0    0 -0.00000000000E+00 -0.00000000000E+00 -0.45600000000E+02  0.45600000000E+02  0.00000000000E+00 0.  1.
        -11    1    1    2    0    0  0.15738802881E+01  0.17104082900E+01  0.29650391814E+02  0.29741357239E+02  0.00000000000E+00 0.  1.
         11    1    1    2    0    0  0.10043348874E+02 -0.42089201096E+01 -0.41067294898E+02  0.42486545816E+02  0.00000000000E+00 0.  1.
        -15    1    1    2    0    0 -0.11419807080E+02  0.76001797841E+00  0.11698861053E+02  0.16462402619E+02  0.17770000000E+01 0. -1.
         15    1    1    2    0    0 -0.19742208160E+00  0.17384938412E+01 -0.28195796824E+00  0.25096943260E+01  0.17770000000E+01 0.  1.
</event>
<event>
 6    1  0.3691007E-002  0.5064535E+02  0.7546771E-02  0.1295098E+00
        -11   -1    0    0    0    0  0.00000000000E+00  0.00000000000E+00  0.45600000000E+02  0.45600000000E+02  0.00000000000E+00 0.  1.
         11   -1    0    0    0    0 -0.00000000000E+00 -0.00000000000E+00 -0.45600000000E+02  0.45600000000E+02  0.00000000000E+00 0.  1.
        -11    1    1    2    0    0 -0.17412625696E+01  0.13886559408E+01  0.35412814642E+02  0.35482781762E+02  0.00000000000E+00 0.  1.
         11    1    1    2    0    0  0.54788036594E+00 -0.84999693652E+00 -0.40542038443E+02  0.40554648917E+02  0.00000000000E+00 0.  1.
        -15    1    1    2    0    0 -0.34401254008E+01  0.48204682090E+00  0.83099681863E+01  0.91804211324E+01  0.17770000000E+01 0. -1.
         15    1    1    2    0    0  0.46335076044E+01 -0.10207058252E+01 -0.31807443856E+01  0.59821481884E+01  0.17770000000E+01 0.  1.
</event>
<event>
 6    1  0.3691007E-002  0.4577651E+02  0.7546771E-02  0.1317241E+00
        -11   -1    0    0    0    0  0.00000000000E+00  0.00000000000E+00  0.45600000000E+02  0.45600000000E+02  0.00000000000E+00 0.  1.
         11   -1    0    0    0    0 -0.00000000000E+00 -0.00000000000E+00 -0.45600000000E+02  0.45600000000E+02  0.00000000000E+00 0. -1.
        -11    1    1    2    0    0 -0.68874637244E+00  0.80084062386E-01  0.19139234924E+01  0.20356542332E+01  0.00000000000E+00 0.  1.
         11    1    1    2    0    0 -0.13847313360E+01  0.41073238474E+01 -0.45216214232E+02  0.45423491934E+02  0.00000000000E+00 0. -1.
        -15    1    1    2    0    0  0.71157391479E+00 -0.73511215990E+00  0.13080529021E+02  0.13240267966E+02  0.17770000000E+01 0. -1.
         15    1    1    2    0    0  0.13619037936E+01 -0.34522957499E+01  0.30221761718E+02  0.30500585867E+02  0.17770000000E+01 0.  1.
</event>
<event>
 6    1  0.3691007E-002  0.4700934E+02  0.7546771E-02  0.1311344E+00
        -11   -1    0    0    0    0  0.00000000000E+00  0.00000000000E+00  0.45600000000E+02  0.45600000000E+02  0.00000000000E+00 0.  1.
         11   -1    0    0    0    0 -0.00000000000E+00 -0.00000000000E+00 -0.45600000000E+02  0.45600000000E+02  0.00000000000E+00 0.  1.
        -11    1    1    2    0    0 -0.98521734468E+00 -0.54516434059E+00  0.22974914350E+02  0.23002490012E+02  0.00000000000E+00 0.  1.
         11    1    1    2    0    0  0.20256233614E+01 -0.25460991674E+00 -0.44143479046E+02  0.44190663250E+02  0.00000000000E+00 0.  1.
        -15    1    1    2    0    0 -0.41515733018E+01 -0.12572031999E+01  0.18509162303E+02  0.19093531337E+02  0.17770000000E+01 0.  1.
         15    1    1    2    0    0  0.31111672850E+01  0.20569774573E+01  0.26594023937E+01  0.49133154007E+01  0.17770000000E+01 0.  1.
</event>
<event>
 6    1  0.3691007E-002  0.4730020E+02  0.7546771E-02  0.1309983E+00
        -11   -1    0    0    0    0  0.00000000000E+00  0.00000000000E+00  0.45600000000E+02  0.45600000000E+02  0.00000000000E+00 0.  1.
         11   -1    0    0    0    0 -0.00000000000E+00 -0.00000000000E+00 -0.45600000000E+02  0.45600000000E+02  0.00000000000E+00 0.  1.
        -11    1    1    2    0    0 -0.57205698512E+00 -0.10033067012E+01  0.43884604818E+02  0.43899799698E+02  0.00000000000E+00 0.  1.
         11    1    1    2    0    0  0.47549535003E+00 -0.52889245041E+00 -0.34991132414E+02  0.34998359543E+02  0.00000000000E+00 0.  1.
        -15    1    1    2    0    0  0.24906529334E+01  0.37033565399E+01 -0.47739429138E+01  0.67724782495E+01  0.17770000000E+01 0.  1.
         15    1    1    2    0    0 -0.23940912983E+01 -0.21711573883E+01 -0.41195294896E+01  0.55293625098E+01  0.17770000000E+01 0. -1.
</event>
<event>
 6    1  0.3691007E-002  0.4609218E+02  0.7546771E-02  0.1315710E+00
        -11   -1    0    0    0    0  0.00000000000E+00  0.00000000000E+00  0.45600000000E+02  0.45600000000E+02  0.00000000000E+00 0. -1.
         11   -1    0    0    0    0 -0.00000000000E+00 -0.00000000000E+00 -0.45600000000E+02  0.45600000000E+02  0.00000000000E+00 0. -1.
        -11    1    1    2    0    0  0.56362381697E-01  0.74353834816E+00  0.17953434990E+02  0.17968913544E+02  0.00000000000E+00 0. -1.
         11    1    1    2    0    0  0.69166208957E+00  0.20650241605E-01 -0.45102507649E+02  0.45107815499E+02  0.00000000000E+00 0. -1.
        -15    1    1    2    0    0  0.26489342915E+01 -0.77671835169E+00  0.91685537776E+01  0.97385959795E+01  0.17770000000E+01 0. -1.
         15    1    1    2    0    0 -0.33969587628E+01  0.12529761928E-01  0.17980518881E+02  0.18384674978E+02  0.17770000000E+01 0. -1.
</event>
<event>
 6    1  0.3691007E-002  0.5112316E+02  0.7546771E-02  0.1293079E+00
        -11   -1    0    0    0    0  0.00000000000E+00  0.00000000000E+00  0.45600000000E+02  0.45600000000E+02  0.00000000000E+00 0. -1.
         11   -1    0    0    0    0 -0.00000000000E+00 -0.00000000000E+00 -0.45600000000E+02  0.45600000000E+02  0.00000000000E+00 0.  1.
        -11    1    1    2    0    0  0.59125069826E+01  0.29268057028E+01  0.34767409875E+02  0.35387804677E+02  0.00000000000E+00 0. -1.
         11    1    1    2    0    0 -0.63371436293E+00 -0.14672165317E+00 -0.40071562359E+02  0.40076841580E+02  0.00000000000E+00 0.  1.
        -15    1    1    2    0    0 -0.61254392971E+01  0.57790162259E+00  0.85393980170E+01  0.10673988212E+02  0.17770000000E+01 0. -1.
         15    1    1    2    0    0  0.84664667740E+00 -0.33579856723E+01 -0.32352455326E+01  0.50613655299E+01  0.17770000000E+01 0.  1.
</event>
<event>
 6    1  0.3691007E-002  0.4948375E+02  0.7546771E-02  0.1300113E+00
        -11   -1    0    0    0    0  0.00000000000E+00  0.00000000000E+00  0.45600000000E+02  0.45600000000E+02  0.00000000000E+00 0. -1.
         11   -1    0    0    0    0 -0.00000000000E+00 -0.00000000000E+00 -0.45600000000E+02  0.45600000000E+02  0.00000000000E+00 0.  1.
        -11    1    1    2    0    0  0.23217233124E+01  0.15478922551E+01  0.41622815997E+02  0.41716246009E+02  0.00000000000E+00 0. -1.
         11    1    1    2    0    0  0.98239339064E-01  0.18194992551E+01 -0.38315751115E+02  0.38359053846E+02  0.00000000000E+00 0.  1.
        -15    1    1    2    0    0 -0.55240526763E+01 -0.29488686387E+01 -0.37246061355E+01  0.74994269170E+01  0.17770000000E+01 0. -1.
         15    1    1    2    0    0  0.31040900249E+01 -0.41852287151E+00  0.41754125289E+00  0.36252732275E+01  0.17770000000E+01 0.  1.
</event>
<event>
 6    1  0.3691007E-002  0.3596647E+02  0.7546771E-02  0.1373352E+00
        -11   -1    0    0    0    0  0.00000000000E+00  0.00000000000E+00  0.45600000000E+02  0.45600000000E+02  0.00000000000E+00 0. -1.
         11   -1    0    0    0    0 -0.00000000000E+00 -0.00000000000E+00 -0.45600000000E+02  0.45600000000E+02  0.00000000000E+00 0. -1.
        -11    1    1    2    0    0 -0.11477384771E+02 -0.13263060905E+02  0.22452604804E+02  0.28491377788E+02  0.00000000000E+00 0. -1.
         11    1    1    2    0    0 -0.45455083456E+00 -0.47709806188E+00 -0.27839046506E+02  0.27846844514E+02  0.00000000000E+00 0. -1.
        -15    1    1    2    0    0 -0.49561261577E+00 -0.11114759535E+01 -0.98966421574E+01  0.10128290362E+02  0.17770000000E+01 0. -1.
         15    1    1    2    0    0  0.12427548222E+02  0.14851634920E+02  0.15283083859E+02  0.24733487337E+02  0.17770000000E+01 0. -1.
</event>
<event>
 6    1  0.3691007E-002  0.4709531E+02  0.7546771E-02  0.1310940E+00
        -11   -1    0    0    0    0  0.00000000000E+00  0.00000000000E+00  0.45600000000E+02  0.45600000000E+02  0.00000000000E+00 0. -1.
         11   -1    0    0    0    0 -0.00000000000E+00 -0.00000000000E+00 -0.45600000000E+02  0.45600000000E+02  0.00000000000E+00 0.  1.
        -11    1    1    2    0    0 -0.72563789442E+00 -0.12919126341E+01  0.44079787717E+02  0.44104685395E+02  0.00000000000E+00 0. -1.
         11    1    1    2    0    0 -0.37439285101E+00 -0.89598393578E+00 -0.36742661999E+02  0.36755491672E+02  0.00000000000E+00 0.  1.
        -15    1    1    2    0    0  0.34137687437E+01  0.14322971572E+01 -0.52893101698E+01  0.66962544198E+01  0.17770000000E+01 0.  1.
         15    1    1    2    0    0 -0.23137379983E+01  0.75559941265E+00 -0.20478155478E+01  0.36435685138E+01  0.17770000000E+01 0. -1.
</event>
<event>
 6    1  0.3691007E-002  0.3930596E+02  0.7546771E-02  0.1352134E+00
        -11   -1    0    0    0    0  0.00000000000E+00  0.00000000000E+00  0.45600000000E+02  0.45600000000E+02  0.00000000000E+00 0. -1.
         11   -1    0    0    0    0 -0.00000000000E+00 -0.00000000000E+00 -0.45600000000E+02  0.45600000000E+02  0.00000000000E+00 0.  1.
        -11    1    1    2    0    0 -0.13757995442E+01  0.23781158103E+01  0.39117985033E+02  0.39214347020E+02  0.00000000000E+00 0. -1.
         11    1    1    2    0    0 -0.58299062535E+00  0.17289950615E+01 -0.39487894970E+02  0.39530028474E+02  0.00000000000E+00 0.  1.
        -15    1    1    2    0    0  0.10943573261E+01  0.37461100697E+01 -0.47128751982E+00  0.43140235903E+01  0.17770000000E+01 0.  1.
         15    1    1    2    0    0  0.86443284345E+00 -0.78532209415E+01  0.84119745710E+00  0.81416009149E+01  0.17770000000E+01 0. -1.
</event>
<event>
 6    1  0.3691007E-002  0.4601178E+02  0.7546771E-02  0.1316099E+00
        -11   -1    0    0    0    0  0.00000000000E+00  0.00000000000E+00  0.45600000000E+02  0.45600000000E+02  0.00000000000E+00 0. -1.
         11   -1    0    0    0    0 -0.00000000000E+00 -0.00000000000E+00 -0.45600000000E+02  0.45600000000E+02  0.00000000000E+00 0.  1.
        -11    1    1    2    0    0  0.17298959729E+01 -0.17967747126E+01  0.45119338266E+02  0.45188224407E+02  0.00000000000E+00 0. -1.
         11    1    1    2    0    0  0.47914437819E-01  0.71697188560E+00 -0.17548265248E+02  0.17562971209E+02  0.00000000000E+00 0.  1.
        -15    1    1    2    0    0 -0.35863369980E+01  0.17098593596E+01 -0.15586307057E+02  0.16182587209E+02  0.17770000000E+01 0.  1.
         15    1    1    2    0    0  0.18085265874E+01 -0.63005653255E+00 -0.11984765961E+02  0.12266217176E+02  0.17770000000E+01 0.  1.
</event>
<event>
 6    1  0.3691007E-002  0.5201338E+02  0.7546771E-02  0.1289385E+00
        -11   -1    0    0    0    0  0.00000000000E+00  0.00000000000E+00  0.45600000000E+02  0.45600000000E+02  0.00000000000E+00 0.  1.
         11   -1    0    0    0    0 -0.00000000000E+00 -0.00000000000E+00 -0.45600000000E+02  0.45600000000E+02  0.00000000000E+00 0.  1.
        -11    1    1    2    0    0 -0.13039298550E+01  0.55709723857E+01  0.38766674026E+02  0.39186617377E+02  0.00000000000E+00 0.  1.
         11    1    1    2    0    0 -0.33331775837E+00  0.70146116179E+00 -0.34621493052E+02  0.34630202564E+02  0.00000000000E+00 0.  1.
        -15    1    1    2    0    0 -0.16139290042E+01  0.82001048404E-02  0.50831848523E+01  0.56215061429E+01  0.17770000000E+01 0.  1.
         15    1    1    2    0    0  0.32511766176E+01 -0.62806336523E+01 -0.92283658263E+01  0.11761673916E+02  0.17770000000E+01 0. -1.
</event>
<event>
 6    1  0.3691007E-002  0.4716446E+02  0.7546771E-02  0.1310617E+00
        -11   -1    0    0    0    0  0.00000000000E+00  0.00000000000E+00  0.45600000000E+02  0.45600000000E+02  0.00000000000E+00 0. -1.
         11   -1    0    0    0    0 -0.00000000000E+00 -0.00000000000E+00 -0.45600000000E+02  0.45600000000E+02  0.00000000000E+00 0.  1.
        -11    1    1    2    0    0 -0.18338813081E+01 -0.21572713247E+01  0.32183965875E+02  0.32308274477E+02  0.00000000000E+00 0. -1.
         11    1    1    2    0    0  0.10126272028E+01  0.20779341885E+00 -0.44023407611E+02  0.44035542572E+02  0.00000000000E+00 0.  1.
        -15    1    1    2    0    0  0.25278043537E+01 -0.67865369741E+00  0.82751052455E+00  0.32699951621E+01  0.17770000000E+01 0. -1.
         15    1    1    2    0    0 -0.17065502484E+01  0.26281316033E+01  0.11011931212E+02  0.11586187789E+02  0.17770000000E+01 0. -1.
</event>
<event>
 6    1  0.3691007E-002  0.4654122E+02  0.7546771E-02  0.1313558E+00
        -11   -1    0    0    0    0  0.00000000000E+00  0.00000000000E+00  0.45600000000E+02  0.45600000000E+02  0.00000000000E+00 0.  1.
         11   -1    0    0    0    0 -0.00000000000E+00 -0.00000000000E+00 -0.45600000000E+02  0.45600000000E+02  0.00000000000E+00 0. -1.
        -11    1    1    2    0    0  0.29129398668E+01 -0.75462193454E+00  0.44557285512E+02  0.44658777022E+02  0.00000000000E+00 0.  1.
         11    1    1    2    0    0 -0.36444631567E+00 -0.27203892943E+01 -0.14786368773E+02  0.15038950779E+02  0.00000000000E+00 0. -1.
        -15    1    1    2    0    0 -0.33838499968E+01  0.29699796784E+01 -0.63039039322E+01  0.79478395729E+01  0.17770000000E+01 0. -1.
         15    1    1    2    0    0  0.83535644564E+00  0.50503155041E+00 -0.23467012807E+02  0.23554432626E+02  0.17770000000E+01 0.  1.
</event>
<event>
 6    1  0.3691007E-002  0.4959997E+02  0.7546771E-02  0.1299604E+00
        -11   -1    0    0    0    0  0.00000000000E+00  0.00000000000E+00  0.45600000000E+02  0.45600000000E+02  0.00000000000E+00 0. -1.
         11   -1    0    0    0    0 -0.00000000000E+00 -0.00000000000E+00 -0.45600000000E+02  0.45600000000E+02  0.00000000000E+00 0.  1.
        -11    1    1    2    0    0  0.18003765358E+00  0.26838469116E+01  0.41512970570E+02  0.41600026122E+02  0.00000000000E+00 0. -1.
         11    1    1    2    0    0 -0.12479886080E+01  0.91691494662E+00 -0.38413776285E+02  0.38444979088E+02  0.00000000000E+00 0.  1.
        -15    1    1    2    0    0 -0.66268336140E+00  0.19557470040E+00 -0.56423006477E+01  0.59557270170E+01  0.17770000000E+01 0. -1.
         15    1    1    2    0    0  0.17306343159E+01 -0.37963365586E+01  0.25431063633E+01  0.51992677731E+01  0.17770000000E+01 0. -1.
</event>
<event>
 6    1  0.3691007E-002  0.3417146E+02  0.7546771E-02  0.1385900E+00
        -11   -1    0    0    0    0  0.00000000000E+00  0.00000000000E+00  0.45600000000E+02  0.45600000000E+02  0.00000000000E+00 0. -1.
         11   -1    0    0    0    0 -0.00000000000E+00 -0.00000000000E+00 -0.45600000000E+02  0.45600000000E+02  0.00000000000E+00 0.  1.
        -11    1    1    2    0    0  0.56400680667E+00 -0.18760378142E+00  0.37856816864E+02  0.37861482828E+02  0.00000000000E+00 0. -1.
         11    1    1    2    0    0 -0.17568013626E+01  0.17977706692E+01 -0.13006795557E+02  0.13247454890E+02  0.00000000000E+00 0.  1.
        -15    1    1    2    0    0  0.65662508638E+01  0.19251731801E+01  0.55370495954E+01  0.89798991866E+01  0.17770000000E+01 0.  1.
         15    1    1    2    0    0 -0.53734563079E+01 -0.35353400679E+01 -0.30387070903E+02  0.31111163095E+02  0.17770000000E+01 0.  1.
</event>
<event>
 6    1  0.3691007E-002  0.4741189E+02  0.7546771E-02  0.1309463E+00
        -11   -1    0    0    0    0  0.00000000000E+00  0.00000000000E+00  0.45600000000E+02  0.45600000000E+02  0.00000000000E+00 0.  1.
         11   -1    0    0    0    0 -0.00000000000E+00 -0.00000000000E+00 -0.45600000000E+02  0.45600000000E+02  0.00000000000E+00 0.  1.
        -11    1    1    2    0    0  0.14347013933E+01  0.81396335886E+00  0.36658320293E+02  0.36695413217E+02  0.00000000000E+00 0.  1.
         11    1    1    2    0    0  0.10603076204E+01 -0.23062895350E+01 -0.43714477783E+02  0.43788112446E+02  0.00000000000E+00 0.  1.
        -15    1    1    2    0    0  0.11480541772E+01 -0.68435757418E+00  0.53773348688E+01  0.58189202585E+01  0.17770000000E+01 0.  1.
         15    1    1    2    0    0 -0.36430631909E+01  0.21766837503E+01  0.16788226211E+01  0.48975540788E+01  0.17770000000E+01 0.  1.
</event>
<event>
 6    1  0.3691007E-002  0.4652177E+02  0.7546771E-02  0.1313651E+00
        -11   -1    0    0    0    0  0.00000000000E+00  0.00000000000E+00  0.45600000000E+02  0.45600000000E+02  0.00000000000E+00 0.  1.
         11   -1    0    0    0    0 -0.00000000000E+00 -0.00000000000E+00 -0.45600000000E+02  0.45600000000E+02  0.00000000000E+00 0.  1.
        -11    1    1    2    0    0 -0.18741119677E+00  0.12405406271E+01  0.44660611852E+02  0.44678230884E+02  0.00000000000E+00 0.  1.
         11    1    1    2    0    0 -0.75870748349E+00  0.45994930918E+00 -0.30158615736E+02  0.30171663752E+02  0.00000000000E+00 0.  1.
        -15    1    1    2    0    0 -0.27074145426E+01 -0.11642926422E+01 -0.70729995193E+01  0.78657944331E+01  0.17770000000E+01 0. -1.
         15    1    1    2    0    0  0.36535332229E+01 -0.53619729412E+00 -0.74289965960E+01  0.84843109309E+01  0.17770000000E+01 0.  1.
</event>
<event>
 6    1  0.3691007E-002  0.4763526E+02  0.7546771E-02  0.1308429E+00
        -11   -1    0    0    0    0  0.00000000000E+00  0.00000000000E+00  0.45600000000E+02  0.45600000000E+02  0.00000000000E+00 0.  1.
         11   -1    0    0    0    0 -0.00000000000E+00 -0.00000000000E+00 -0.45600000000E+02  0.45600000000E+02  0.00000000000E+00 0.  1.
        -11    1    1    2    0    0 -0.12698185382E+01 -0.14301029069E+01  0.43522740829E+02  0.43564740361E+02  0.00000000000E+00 0.  1.
         11    1    1    2    0    0 -0.28663072512E+00  0.57762023353E+00 -0.40361147348E+02  0.40366298041E+02  0.00000000000E+00 0.  1.
        -15    1    1    2    0    0  0.90958008831E-01 -0.12601246143E+01 -0.35017283864E+01  0.41250476476E+01  0.17770000000E+01 0.  1.
         15    1    1    2    0    0  0.14654912545E+01  0.21126072877E+01  0.34013490511E+00  0.31439139497E+01  0.17770000000E+01 0.  1.
</event>
<event>
 6    1  0.3691007E-002  0.4660966E+02  0.7546771E-02  0.1313232E+00
        -11   -1    0    0    0    0  0.00000000000E+00  0.00000000000E+00  0.45600000000E+02  0.45600000000E+02  0.00000000000E+00 0.  1.
         11   -1    0    0    0    0 -0.00000000000E+00 -0.00000000000E+00 -0.45600000000E+02  0.45600000000E+02  0.00000000000E+00 0.  1.
        -11    1    1    2    0    0  0.50599764706E+00  0.77335351861E+00  0.44580761117E+02  0.44590339436E+02  0.00000000000E+00 0.  1.
         11    1    1    2    0    0 -0.16781231122E+01  0.19011443075E+01 -0.38144564644E+02  0.38228762192E+02  0.00000000000E+00 0.  1.
        -15    1    1    2    0    0  0.13604949978E+01 -0.54824732365E+00 -0.42945642277E+01  0.48736570122E+01  0.17770000000E+01 0.  1.
         15    1    1    2    0    0 -0.18836953269E+00 -0.21262505024E+01 -0.21416322455E+01  0.35072413596E+01  0.17770000000E+01 0. -1.
</event>
<event>
 6    1  0.3691007E-002  0.4744262E+02  0.7546771E-02  0.1309321E+00
        -11   -1    0    0    0    0  0.00000000000E+00  0.00000000000E+00  0.45600000000E+02  0.45600000000E+02  0.00000000000E+00 0.  1.
         11   -1    0    0    0    0 -0.00000000000E+00 -0.00000000000E+00 -0.45600000000E+02  0.45600000000E+02  0.00000000000E+00 0. -1.
        -11    1    1    2    0    0  0.88724385266E+00 -0.10729400822E+01  0.43735222071E+02  0.43757377111E+02  0.00000000000E+00 0.  1.
         11    1    1    2    0    0 -0.55332906966E+00  0.35466332908E+00 -0.41618412506E+02  0.41623601702E+02  0.00000000000E+00 0. -1.
        -15    1    1    2    0    0 -0.17329645860E+01 -0.64342734994E+00 -0.23066316478E+00  0.25745095662E+01  0.17770000000E+01 0.  1.
         15    1    1    2    0    0  0.13990498030E+01  0.13617041030E+01 -0.18861464001E+01  0.32445116209E+01  0.17770000000E+01 0. -1.
</event>
<event>
 6    1  0.3691007E-002  0.4632315E+02  0.7546771E-02  0.1314600E+00
        -11   -1    0    0    0    0  0.00000000000E+00  0.00000000000E+00  0.45600000000E+02  0.45600000000E+02  0.00000000000E+00 0. -1.
         11   -1    0    0    0    0 -0.00000000000E+00 -0.00000000000E+00 -0.45600000000E+02  0.45600000000E+02  0.00000000000E+00 0. -1.
        -11    1    1    2    0    0  0.61393289405E+00 -0.71565333361E+00  0.44866945067E+02  0.44876851861E+02  0.00000000000E+00 0. -1.
         11    1    1    2    0    0 -0.48339013726E+00 -0.43646315229E+00 -0.33922542377E+02  0.33928793781E+02  0.00000000000E+00 0. -1.
        -15    1    1    2    0    0  0.21390507602E+01  0.54421562234E+00 -0.60714939237E+01  0.67001847932E+01  0.17770000000E+01 0. -1.
         15    1    1    2    0    0 -0.22695935170E+01  0.60790086357E+00 -0.48729087664E+01  0.56941695652E+01  0.17770000000E+01 0. -1.
</event>
<event>
 6    1  0.3691007E-002  0.4608215E+02  0.7546771E-02  0.1315759E+00
        -11   -1    0    0    0    0  0.00000000000E+00  0.00000000000E+00  0.45600000000E+02  0.45600000000E+02  0.00000000000E+00 0. -1.
         11   -1    0    0    0    0 -0.00000000000E+00 -0.00000000000E+00 -0.45600000000E+02  0.45600000000E+02  0.00000000000E+00 0.  1.
        -11    1    1    2    0    0 -0.12020917063E+01 -0.66562916810E+00  0.45096920128E+02  0.45117848926E+02  0.00000000000E+00 0. -1.
         11    1    1    2    0    0 -0.73099484824E+00 -0.23857642995E-01 -0.12914994641E+02  0.12935687428E+02  0.00000000000E+00 0.  1.
        -15    1    1    2    0    0  0.15279604701E+01 -0.17854504714E+01 -0.50934541388E+01  0.58841737439E+01  0.17770000000E+01 0. -1.
         15    1    1    2    0    0  0.40512608453E+00  0.24749372825E+01 -0.27088471348E+02  0.27262289902E+02  0.17770000000E+01 0.  1.
</event>
<event>
 6    1  0.3691007E-002  0.4691852E+02  0.7546771E-02  0.1311771E+00
        -11   -1    0    0    0    0  0.00000000000E+00  0.00000000000E+00  0.45600000000E+02  0.45600000000E+02  0.00000000000E+00 0. -1.
         11   -1    0    0    0    0 -0.00000000000E+00 -0.00000000000E+00 -0.45600000000E+02  0.45600000000E+02  0.00000000000E+00 0.  1.
        -11    1    1    2    0    0 -0.40084676577E+00 -0.16034674627E+01  0.44250624103E+02  0.44281480549E+02  0.00000000000E+00 0. -1.
         11    1    1    2    0    0  0.46189599131E+00 -0.83372629892E+00 -0.15690459185E+02  0.15719381568E+02  0.00000000000E+00 0.  1.
        -15    1    1    2    0    0 -0.61464072471E+00 -0.27569124637E+01 -0.23425665077E+02  0.23662160993E+02  0.17770000000E+01 0.  1.
         15    1    1    2    0    0  0.55359149917E+00  0.51941062253E+01 -0.51344998422E+01  0.75369768911E+01  0.17770000000E+01 0. -1.
</event>
<event>
 6    1  0.3691007E-002  0.4644390E+02  0.7546771E-02  0.1314022E+00
        -11   -1    0    0    0    0  0.00000000000E+00  0.00000000000E+00  0.45600000000E+02  0.45600000000E+02  0.00000000000E+00 0. -1.
         11   -1    0    0    0    0 -0.00000000000E+00 -0.00000000000E+00 -0.45600000000E+02  0.45600000000E+02  0.00000000000E+00 0. -1.
        -11    1    1    2    0    0 -0.11275902952E+01  0.14905599125E+01  0.44717060129E+02  0.44756102325E+02  0.00000000000E+00 0. -1.
         11    1    1    2    0    0 -0.11602877006E+01  0.57354547745E+00 -0.23001599022E+02  0.23037985578E+02  0.00000000000E+00 0. -1.
        -15    1    1    2    0    0  0.29099878241E+01 -0.44242422631E+01 -0.15915585451E+02  0.16867291957E+02  0.17770000000E+01 0. -1.
         15    1    1    2    0    0 -0.62210982834E+00  0.23601368731E+01 -0.57998756567E+01  0.65386201397E+01  0.17770000000E+01 0. -1.
</event>
<event>
 6    1  0.3691007E-002  0.4826317E+02  0.7546771E-02  0.1305556E+00
        -11   -1    0    0    0    0  0.00000000000E+00  0.00000000000E+00  0.45600000000E+02  0.45600000000E+02  0.00000000000E+00 0.  1.
         11   -1    0    0    0    0 -0.00000000000E+00 -0.00000000000E+00 -0.45600000000E+02  0.45600000000E+02  0.00000000000E+00 0.  1.
        -11    1    1    2    0    0  0.36101361405E+00 -0.97168786728E+00  0.42924316183E+02  0.42936830669E+02  0.00000000000E+00 0.  1.
         11    1    1    2    0    0  0.26112749103E+00 -0.44366470959E+00 -0.36305821541E+02  0.36309471267E+02  0.00000000000E+00 0.  1.
        -15    1    1    2    0    0  0.29939914343E+01 -0.23222966332E+01 -0.15065970820E+01  0.44479894479E+01  0.17770000000E+01 0.  1.
         15    1    1    2    0    0 -0.36161325393E+01  0.37376492101E+01 -0.51118975604E+01  0.75057086160E+01  0.17770000000E+01 0. -1.
</event>
<event>
 6    1  0.3691007E-002  0.4146560E+02  0.7546771E-02  0.1339673E+00
        -11   -1    0    0    0    0  0.00000000000E+00  0.00000000000E+00  0.45600000000E+02  0.45600000000E+02  0.00000000000E+00 0. -1.
         11   -1    0    0    0    0 -0.00000000000E+00 -0.00000000000E+00 -0.45600000000E+02  0.45600000000E+02  0.00000000000E+00 0.  1.
        -11    1    1    2    0    0  0.17450866741E+01  0.31384767285E+00  0.41860533886E+02  0.41898068274E+02  0.00000000000E+00 0. -1.
         11    1    1    2    0    0  0.28820002414E+00 -0.77099429626E+00 -0.41054967556E+02  0.41063217756E+02  0.00000000000E+00 0.  1.
        -15    1    1    2    0    0 -0.12251478974E+00  0.17561685316E+01  0.26993509233E+01  0.36801307303E+01  0.17770000000E+01 0. -1.
         15    1    1    2    0    0 -0.19107719085E+01 -0.12990219082E+01 -0.35049172528E+01  0.45585832397E+01  0.17770000000E+01 0.  1.
</event>
<event>
 6    1  0.3691007E-002  0.4636855E+02  0.7546771E-02  0.1314382E+00
        -11   -1    0    0    0    0  0.00000000000E+00  0.00000000000E+00  0.45600000000E+02  0.45600000000E+02  0.00000000000E+00 0.  1.
         11   -1    0    0    0    0 -0.00000000000E+00 -0.00000000000E+00 -0.45600000000E+02  0.45600000000E+02  0.00000000000E+00 0. -1.
        -11    1    1    2    0    0 -0.15289424184E+01  0.28860180089E+01  0.44712329125E+02  0.44831452582E+02  0.00000000000E+00 0.  1.
         11    1    1    2    0    0 -0.35655650495E+01  0.25463654807E+00 -0.20022909094E+02  0.20339493171E+02  0.00000000000E+00 0. -1.
        -15    1    1    2    0    0  0.15079172900E+01 -0.18037012627E+01 -0.17038386319E+02  0.17291370395E+02  0.17770000000E+01 0. -1.
         15    1    1    2    0    0  0.35865901780E+01 -0.13369532943E+01 -0.76510337127E+01  0.87376838515E+01  0.17770000000E+01 0.  1.
</event>
<event>
 6    1  0.3691007E-002  0.4585307E+02  0.7546771E-02  0.1316868E+00
        -11   -1    0    0    0    0  0.00000000000E+00  0.00000000000E+00  0.45600000000E+02  0.45600000000E+02  0.00000000000E+00 0.  1.
         11   -1    0    0    0    0 -0.00000000000E+00 -0.00000000000E+00 -0.45600000000E+02  0.45600000000E+02  0.00000000000E+00 0. -1.
        -11    1    1    2    0    0  0.64733965974E+00 -0.16341055478E+01  0.45312849405E+02  0.45346925704E+02  0.00000000000E+00 0.  1.
         11    1    1    2    0    0 -0.23959500650E+01 -0.72783474556E-02 -0.18183431377E+02  0.18340605397E+02  0.00000000000E+00 0. -1.
        -15    1    1    2    0    0  0.76008467921E+00 -0.33245394358E-01 -0.12278779976E+02  0.12430004050E+02  0.17770000000E+01 0. -1.
         15    1    1    2    0    0  0.98852572607E+00  0.16746292896E+01 -0.14850638052E+02  0.15082464849E+02  0.17770000000E+01 0. -1.
</event>
<event>
 6    1  0.4270664E-002  0.4661914E+02  0.7546771E-02  0.1313187E+00
        -11   -1    0    0    0    0  0.00000000000E+00  0.00000000000E+00  0.45600000000E+02  0.45600000000E+02  0.00000000000E+00 0. -1.
         11   -1    0    0    0    0 -0.00000000000E+00 -0.00000000000E+00 -0.45600000000E+02  0.45600000000E+02  0.00000000000E+00 0.  1.
        -11    1    1    2    0    0  0.12986156745E+01 -0.33199111017E+00  0.44560707085E+02  0.44580861776E+02  0.00000000000E+00 0. -1.
         11    1    1    2    0    0  0.69497978785E+00  0.19651075207E+00 -0.99737804298E+01  0.99998954716E+01  0.00000000000E+00 0.  1.
        -15    1    1    2    0    0 -0.77931594853E+00  0.34013285973E+00 -0.51676218109E-02  0.19699693942E+01  0.17770000000E+01 0. -1.
         15    1    1    2    0    0 -0.12142795138E+01 -0.20465250163E+00 -0.34581759034E+02  0.34649273358E+02  0.17770000000E+01 0.  1.
</event>
<event>
 6    1  0.3691007E-002  0.4613348E+02  0.7546771E-02  0.1315511E+00
        -11   -1    0    0    0    0  0.00000000000E+00  0.00000000000E+00  0.45600000000E+02  0.45600000000E+02  0.00000000000E+00 0.  1.
         11   -1    0    0    0    0 -0.00000000000E+00 -0.00000000000E+00 -0.45600000000E+02  0.45600000000E+02  0.00000000000E+00 0. -1.
        -11    1    1    2    0    0 -0.80068240648E+00  0.17262293944E+01  0.45026325821E+02  0.45066517252E+02  0.00000000000E+00 0.  1.
         11    1    1    2    0    0 -0.97859991007E+00 -0.86438741308E+00 -0.16652141561E+02  0.16703252437E+02  0.00000000000E+00 0. -1.
        -15    1    1    2    0    0  0.14151860943E+01  0.28685934004E+01 -0.13869072958E+02  0.14343656908E+02  0.17770000000E+01 0. -1.
         15    1    1    2    0    0  0.36409622225E+00 -0.37304353817E+01 -0.14505111302E+02  0.15086573404E+02  0.17770000000E+01 0. -1.
</event>
<event>
 6    1  0.3691007E-002  0.4812733E+02  0.7546771E-02  0.1306173E+00
        -11   -1    0    0    0    0  0.00000000000E+00  0.00000000000E+00  0.45600000000E+02  0.45600000000E+02  0.00000000000E+00 0. -1.
         11   -1    0    0    0    0 -0.00000000000E+00 -0.00000000000E+00 -0.45600000000E+02  0.45600000000E+02  0.00000000000E+00 0. -1.
        -11    1    1    2    0    0  0.30930381053E+01  0.50376048844E+01  0.42665094994E+02  0.43072667419E+02  0.00000000000E+00 0. -1.
         11    1    1    2    0    0 -0.35953279186E+00 -0.22489673263E+01 -0.24242242915E+02  0.24348992986E+02  0.00000000000E+00 0. -1.
        -15    1    1    2    0    0 -0.34561760530E+01  0.40442238763E+01 -0.14764347915E+02  0.15793815183E+02  0.17770000000E+01 0.  1.
         15    1    1    2    0    0  0.72267073958E+00 -0.68328614344E+01 -0.36585041634E+01  0.79845244125E+01  0.17770000000E+01 0. -1.
</event>
<event>
 6    1  0.3691007E-002  0.4838845E+02  0.7546771E-02  0.1304989E+00
        -11   -1    0    0    0    0  0.00000000000E+00  0.00000000000E+00  0.45600000000E+02  0.45600000000E+02  0.00000000000E+00 0.  1.
         11   -1    0    0    0    0 -0.00000000000E+00 -0.00000000000E+00 -0.45600000000E+02  0.45600000000E+02  0.00000000000E+00 0.  1.
        -11    1    1    2    0    0  0.55889786446E+00  0.19605314841E+00  0.42807448198E+02  0.42811545463E+02  0.00000000000E+00 0.  1.
         11    1    1    2    0    0 -0.54740359895E+00 -0.32938603737E+00 -0.39888879389E+02  0.39893995096E+02  0.00000000000E+00 0.  1.
        -15    1    1    2    0    0 -0.14637002258E+01 -0.26248240013E+01 -0.34010584410E+01  0.48741201162E+01  0.17770000000E+01 0. -1.
         15    1    1    2    0    0  0.14522059603E+01  0.27581568903E+01  0.48248963138E+00  0.36203393248E+01  0.17770000000E+01 0. -1.
</event>
<event>
 6    1  0.3691007E-002  0.4723464E+02  0.7546771E-02  0.1310289E+00
        -11   -1    0    0    0    0  0.00000000000E+00  0.00000000000E+00  0.45600000000E+02  0.45600000000E+02  0.00000000000E+00 0.  1.
         11   -1    0    0    0    0 -0.00000000000E+00 -0.00000000000E+00 -0.45600000000E+02  0.45600000000E+02  0.00000000000E+00 0.  1.
        -11    1    1    2    0    0 -0.18183119116E+01 -0.10551698994E+01  0.38971231603E+02  0.39027894311E+02  0.00000000000E+00 0.  1.
         11    1    1    2    0    0  0.19232964775E+00  0.77539824683E+00 -0.43958104360E+02  0.43965363322E+02  0.00000000000E+00 0.  1.
        -15    1    1    2    0    0 -0.10500450796E+01 -0.17221395125E+01  0.25491952647E+01  0.37046571592E+01  0.17770000000E+01 0. -1.
         15    1    1    2    0    0  0.26760273435E+01  0.20019111650E+01  0.24376774923E+01  0.45020852071E+01  0.17770000000E+01 0.  1.
</event>
<event>
 6    1  0.3691007E-002  0.4758434E+02  0.7546771E-02  0.1308664E+00
        -11   -1    0    0    0    0  0.00000000000E+00  0.00000000000E+00  0.45600000000E+02  0.45600000000E+02  0.00000000000E+00 0.  1.
         11   -1    0    0    0    0 -0.00000000000E+00 -0.00000000000E+00 -0.45600000000E+02  0.45600000000E+02  0.00000000000E+00 0.  1.
        -11    1    1    2    0    0 -0.18018101039E+01  0.49406567636E+01  0.43297448656E+02  0.43615658530E+02  0.00000000000E+00 0.  1.
         11    1    1    2    0    0 -0.52497085822E+00  0.34384535212E+01 -0.30204263300E+02  0.30403882623E+02  0.00000000000E+00 0.  1.
        -15    1    1    2    0    0  0.40445640980E+01 -0.49208066763E+01 -0.97089525750E+01  0.11747098629E+02  0.17770000000E+01 0.  1.
         15    1    1    2    0    0 -0.17177831359E+01 -0.34583036086E+01 -0.33842327805E+01  0.54333602185E+01  0.17770000000E+01 0. -1.
</event>
<event>
 6    1  0.3691007E-002  0.4638123E+02  0.7546771E-02  0.1314322E+00
        -11   -1    0    0    0    0  0.00000000000E+00  0.00000000000E+00  0.45600000000E+02  0.45600000000E+02  0.00000000000E+00 0.  1.
         11   -1    0    0    0    0 -0.00000000000E+00 -0.00000000000E+00 -0.45600000000E+02  0.45600000000E+02  0.00000000000E+00 0.  1.
        -11    1    1    2    0    0  0.88094914803E+00 -0.38791398194E+00  0.32965049846E+02  0.32979100351E+02  0.00000000000E+00 0.  1.
         11    1    1    2    0    0 -0.31556187260E+00  0.76983262239E+00 -0.44811042963E+02  0.44818766080E+02  0.00000000000E+00 0.  1.
        -15    1    1    2    0    0 -0.21782663154E+01  0.13232040539E+01  0.78200923401E+01  0.84147065496E+01  0.17770000000E+01 0. -1.
         15    1    1    2    0    0  0.16128790400E+01 -0.17051226943E+01  0.40259007769E+01  0.49874270186E+01  0.17770000000E+01 0. -1.
</event>
<event>
 6    1  0.3691007E-002  0.3882697E+02  0.7546771E-02  0.1355024E+00
        -11   -1    0    0    0    0  0.00000000000E+00  0.00000000000E+00  0.45600000000E+02  0.45600000000E+02  0.00000000000E+00 0. -1.
         11   -1    0    0    0    0 -0.00000000000E+00 -0.00000000000E+00 -0.45600000000E+02  0.45600000000E+02  0.00000000000E+00 0.  1.
        -11    1    1    2    0    0 -0.19885001312E+00  0.10320996242E+01  0.39012664491E+02  0.39026821055E+02  0.00000000000E+00 0. -1.
         11    1    1    2    0    0  0.13831027078E+01 -0.28981245250E+01 -0.38526481901E+02  0.38660081564E+02  0.00000000000E+00 0.  1.
        -15    1    1    2    0    0 -0.14124640125E+01  0.44967488623E+01 -0.55732918206E+01  0.75123309055E+01  0.17770000000E+01 0. -1.
         15    1    1    2    0    0  0.22821131781E+00 -0.26307239615E+01  0.50871092307E+01  0.60007664754E+01  0.17770000000E+01 0. -1.
</event>
<event>
 6    1  0.3691007E-002  0.4906217E+02  0.7546771E-02  0.1301973E+00
        -11   -1    0    0    0    0  0.00000000000E+00  0.00000000000E+00  0.45600000000E+02  0.45600000000E+02  0.00000000000E+00 0.  1.
         11   -1    0    0    0    0 -0.00000000000E+00 -0.00000000000E+00 -0.45600000000E+02  0.45600000000E+02  0.00000000000E+00 0.  1.
        -11    1    1    2    0    0  0.39591709454E+00 -0.13253482702E+01  0.40793669913E+02  0.40817114099E+02  0.00000000000E+00 0.  1.
         11    1    1    2    0    0  0.60251973136E+00  0.83023897762E+00 -0.42125345498E+02  0.42137834070E+02  0.00000000000E+00 0.  1.
        -15    1    1    2    0    0 -0.12466518462E+01  0.30624499992E+01  0.28987708706E+01  0.47427146639E+01  0.17770000000E+01 0. -1.
         15    1    1    2    0    0  0.24821502033E+00 -0.25673407066E+01 -0.15670952850E+01  0.35023371672E+01  0.17770000000E+01 0.  1.
</event>
<event>
 6    1  0.3691007E-002  0.4995302E+02  0.7546771E-02  0.1298068E+00
        -11   -1    0    0    0    0  0.00000000000E+00  0.00000000000E+00  0.45600000000E+02  0.45600000000E+02  0.00000000000E+00 0.  1.
         11   -1    0    0    0    0 -0.00000000000E+00 -0.00000000000E+00 -0.45600000000E+02  0.45600000000E+02  0.00000000000E+00 0.  1.
        -11    1    1    2    0    0  0.32515227378E+01 -0.14369400576E+01  0.41093507824E+02  0.41246982703E+02  0.00000000000E+00 0.  1.
         11    1    1    2    0    0  0.22830608723E+01 -0.29049405856E+01 -0.33269214243E+02  0.33473745878E+02  0.00000000000E+00 0.  1.
        -15    1    1    2    0    0  0.36310968238E+01  0.28269107390E+01 -0.36714971389E+01  0.61493014816E+01  0.17770000000E+01 0. -1.
         15    1    1    2    0    0 -0.91656804339E+01  0.15149699041E+01 -0.41527964419E+01  0.10329969938E+02  0.17770000000E+01 0.  1.
</event>
<event>
 6    1  0.3691007E-002  0.4649497E+02  0.7546771E-02  0.1313778E+00
        -11   -1    0    0    0    0  0.00000000000E+00  0.00000000000E+00  0.45600000000E+02  0.45600000000E+02  0.00000000000E+00 0.  1.
         11   -1    0    0    0    0 -0.00000000000E+00 -0.00000000000E+00 -0.45600000000E+02  0.45600000000E+02  0.00000000000E+00 0. -1.
        -11    1    1    2    0    0  0.42157777081E+00  0.67702493430E+00  0.27737610839E+02  0.27749074681E+02  0.00000000000E+00 0.  1.
         11    1    1    2    0    0  0.25896743554E+01 -0.21625650793E+01 -0.44577531996E+02  0.44705027232E+02  0.00000000000E+00 0. -1.
        -15    1    1    2    0    0  0.10204778232E+01  0.12636105267E+01  0.11821303516E+02  0.12063955917E+02  0.17770000000E+01 0. -1.
         15    1    1    2    0    0 -0.40317299494E+01  0.22192961830E+00  0.50186176411E+01  0.66819421704E+01  0.17770000000E+01 0. -1.
</event>
<event>
 6    1  0.3691007E-002  0.2844401E+02  0.7546771E-02  0.1432866E+00
        -11   -1    0    0    0    0  0.00000000000E+00  0.00000000000E+00  0.45600000000E+02  0.45600000000E+02  0.00000000000E+00 0. -1.
         11   -1    0    0    0    0 -0.00000000000E+00 -0.00000000000E+00 -0.45600000000E+02  0.45600000000E+02  0.00000000000E+00 0. -1.
        -11    1    1    2    0    0  0.30564197581E+01 -0.27102481772E+01  0.33189354145E+02  0.33439802264E+02  0.00000000000E+00 0. -1.
         11    1    1    2    0    0  0.10894327870E+01  0.28317405018E+01 -0.20761015170E+02  0.20981548298E+02  0.00000000000E+00 0. -1.
        -15    1    1    2    0    0 -0.78906520403E+01  0.49522594357E+01 -0.22696539532E+02  0.24598331221E+02  0.17770000000E+01 0. -1.
         15    1    1    2    0    0  0.37447994953E+01 -0.50737517602E+01  0.10268200557E+02  0.12180318217E+02  0.17770000000E+01 0.  1.
</event>
<event>
 6    1  0.3691007E-002  0.4588758E+02  0.7546771E-02  0.1316701E+00
        -11   -1    0    0    0    0  0.00000000000E+00  0.00000000000E+00  0.45600000000E+02  0.45600000000E+02  0.00000000000E+00 0. -1.
         11   -1    0    0    0    0 -0.00000000000E+00 -0.00000000000E+00 -0.45600000000E+02  0.45600000000E+02  0.00000000000E+00 0. -1.
        -11    1    1    2    0    0  0.31333012617E+00  0.51754189149E+00  0.60017315116E+01  0.60321477531E+01  0.00000000000E+00 0. -1.
         11    1    1    2    0    0  0.54447585140E+00 -0.92558977755E+00 -0.45299690397E+02  0.45312416846E+02  0.00000000000E+00 0. -1.
        -15    1    1    2    0    0  0.56587811122E+00  0.27834907195E+01  0.19366003226E+02  0.19653698089E+02  0.17770000000E+01 0. -1.
         15    1    1    2    0    0 -0.14236840888E+01 -0.23754428334E+01  0.19931955659E+02  0.20201737312E+02  0.17770000000E+01 0. -1.
</event>
<event>
 6    1  0.3691007E-002  0.4853690E+02  0.7546771E-02  0.1304320E+00
        -11   -1    0    0    0    0  0.00000000000E+00  0.00000000000E+00  0.45600000000E+02  0.45600000000E+02  0.00000000000E+00 0. -1.
         11   -1    0    0    0    0 -0.00000000000E+00 -0.00000000000E+00 -0.45600000000E+02  0.45600000000E+02  0.00000000000E+00 0. -1.
        -11    1    1    2    0    0  0.11597093626E-01  0.17151844682E+01  0.42628607652E+02  0.42663100949E+02  0.00000000000E+00 0. -1.
         11    1    1    2    0    0 -0.46251005388E+00  0.31765927597E+00 -0.36068026306E+02  0.36072390337E+02  0.00000000000E+00 0. -1.
        -15    1    1    2    0    0  0.18936547809E+01  0.55424125073E+00  0.19402310289E+01  0.32886680037E+01  0.17770000000E+01 0.  1.
         15    1    1    2    0    0 -0.14427418206E+01 -0.25870849949E+01 -0.85008123742E+01  0.91758407109E+01  0.17770000000E+01 0. -1.
</event>
<event>
 6    1  0.3691007E-002  0.4607465E+02  0.7546771E-02  0.1315795E+00
        -11   -1    0    0    0    0  0.00000000000E+00  0.00000000000E+00  0.45600000000E+02  0.45600000000E+02  0.00000000000E+00 0. -1.
         11   -1    0    0    0    0 -0.00000000000E+00 -0.00000000000E+00 -0.45600000000E+02  0.45600000000E+02  0.00000000000E+00 0.  1.
        -11    1    1    2    0    0 -0.38806955817E+00  0.12965440967E+01  0.45105051187E+02  0.45125350604E+02  0.00000000000E+00 0. -1.
         11    1    1    2    0    0 -0.35020838497E+00  0.79308948477E+00 -0.31548140946E+02  0.31560051235E+02  0.00000000000E+00 0.  1.
        -15    1    1    2    0    0  0.13469113554E+01 -0.24046117577E+01 -0.84346257571E+01  0.90496943908E+01  0.17770000000E+01 0.  1.
         15    1    1    2    0    0 -0.60863341225E+00  0.31497817618E+00 -0.51222844838E+01  0.54649037699E+01  0.17770000000E+01 0.  1.
</event>
<event>
 6    1  0.3691007E-002  0.4810056E+02  0.7546771E-02  0.1306295E+00
        -11   -1    0    0    0    0  0.00000000000E+00  0.00000000000E+00  0.45600000000E+02  0.45600000000E+02  0.00000000000E+00 0.  1.
         11   -1    0    0    0    0 -0.00000000000E+00 -0.00000000000E+00 -0.45600000000E+02  0.45600000000E+02  0.00000000000E+00 0. -1.
        -11    1    1    2    0    0  0.46288919968E+01 -0.46210427676E+01  0.30565011517E+02  0.31257008917E+02  0.00000000000E+00 0.  1.
         11    1    1    2    0    0  0.24092615990E-01 -0.19911210547E+01 -0.43053418180E+02  0.43099442693E+02  0.00000000000E+00 0. -1.
        -15    1    1    2    0    0 -0.10448443849E+01  0.68219554389E+01  0.92418520698E+01  0.11670489899E+02  0.17770000000E+01 0. -1.
         15    1    1    2    0    0 -0.36081402279E+01 -0.20979161660E+00  0.32465545927E+01  0.51730584909E+01  0.17770000000E+01 0.  1.
</event>
<event>
 6    1  0.3691007E-002  0.4020404E+02  0.7546771E-02  0.1346842E+00
        -11   -1    0    0    0    0  0.00000000000E+00  0.00000000000E+00  0.45600000000E+02  0.45600000000E+02  0.00000000000E+00 0. -1.
         11   -1    0    0    0    0 -0.00000000000E+00 -0.00000000000E+00 -0.45600000000E+02  0.45600000000E+02  0.00000000000E+00 0.  1.
        -11    1    1    2    0    0  0.13128653065E+01 -0.43598576829E+01  0.39739855394E+02  0.39999851013E+02  0.00000000000E+00 0. -1.
         11    1    1    2    0    0  0.20860821921E+00 -0.12520485078E+01 -0.40602979146E+02  0.40622814506E+02  0.00000000000E+00 0.  1.
        -15    1    1    2    0    0 -0.37432891253E+00  0.16377810720E+01  0.42774306957E+01  0.49271281018E+01  0.17770000000E+01 0. -1.
         15    1    1    2    0    0 -0.11471446132E+01  0.39741251187E+01 -0.34143069442E+01  0.56502063796E+01  0.17770000000E+01 0.  1.
</event>
<event>
 6    1  0.3691007E-002  0.4693227E+02  0.7546771E-02  0.1311706E+00
        -11   -1    0    0    0    0  0.00000000000E+00  0.00000000000E+00  0.45600000000E+02  0.45600000000E+02  0.00000000000E+00 0.  1.
         11   -1    0    0    0    0 -0.00000000000E+00 -0.00000000000E+00 -0.45600000000E+02  0.45600000000E+02  0.00000000000E+00 0. -1.
        -11    1    1    2    0    0 -0.39633135189E+00  0.13903262239E+01  0.29399366982E+02  0.29434891956E+02  0.00000000000E+00 0.  1.
         11    1    1    2    0    0  0.39469742981E+00  0.81292201889E+00 -0.44258503135E+02  0.44267727839E+02  0.00000000000E+00 0. -1.
        -15    1    1    2    0    0  0.31576997798E+01 -0.25388368539E+01  0.12240036204E+02  0.13015105675E+02  0.17770000000E+01 0.  1.
         15    1    1    2    0    0 -0.31560658577E+01  0.33558861115E+00  0.26190999497E+01  0.44822745298E+01  0.17770000000E+01 0. -1.
</event>
<event>
 6    1  0.3691007E-002  0.4685817E+02  0.7546771E-02  0.1312056E+00
        -11   -1    0    0    0    0  0.00000000000E+00  0.00000000000E+00  0.45600000000E+02  0.45600000000E+02  0.00000000000E+00 0.  1.
         11   -1    0    0    0    0 -0.00000000000E+00 -0.00000000000E+00 -0.45600000000E+02  0.45600000000E+02  0.00000000000E+00 0.  1.
        -11    1    1    2    0    0 -0.65763074304E+00  0.99736191859E-01  0.44336839984E+02  0.44341829070E+02  0.00000000000E+00 0.  1.
         11    1    1    2    0    0 -0.24160473872E+00 -0.52339213363E+01 -0.25266788872E+02  0.25804319897E+02  0.00000000000E+00 0.  1.
        -15    1    1    2    0    0 -0.18631290899E+01  0.93606931634E+00 -0.27349511265E+01  0.38710673508E+01  0.17770000000E+01 0. -1.
         15    1    1    2    0    0  0.27623645716E+01  0.41981158281E+01 -0.16335099986E+02  0.17182783682E+02  0.17770000000E+01 0.  1.
</event>
<event>
 6    1  0.3691007E-002  0.4733277E+02  0.7546771E-02  0.1309831E+00
        -11   -1    0    0    0    0  0.00000000000E+00  0.00000000000E+00  0.45600000000E+02  0.45600000000E+02  0.00000000000E+00 0.  1.
         11   -1    0    0    0    0 -0.00000000000E+00 -0.00000000000E+00 -0.45600000000E+02  0.45600000000E+02  0.00000000000E+00 0. -1.
        -11    1    1    2    0    0  0.86893742054E-01 -0.49809854618E+00  0.18199145497E+02  0.18206167898E+02  0.00000000000E+00 0.  1.
         11    1    1    2    0    0 -0.13079444775E+01  0.84771024898E+00 -0.43839531801E+02  0.43867230138E+02  0.00000000000E+00 0. -1.
        -15    1    1    2    0    0  0.26966707627E+01 -0.39654803586E+01  0.23990686289E+02  0.24529733494E+02  0.17770000000E+01 0.  1.
         15    1    1    2    0    0 -0.14756200272E+01  0.36158686558E+01  0.16497000150E+01  0.45968684711E+01  0.17770000000E+01 0.  1.
</event>
<event>
 6    1  0.3691007E-002  0.4526587E+02  0.7546771E-02  0.1319746E+00
        -11   -1    0    0    0    0  0.00000000000E+00  0.00000000000E+00  0.45600000000E+02  0.45600000000E+02  0.00000000000E+00 0.  1.
         11   -1    0    0    0    0 -0.00000000000E+00 -0.00000000000E+00 -0.45600000000E+02  0.45600000000E+02  0.00000000000E+00 0. -1.
        -11    1    1    2    0    0  0.54539823391E+00  0.24234396541E+00  0.99648029479E+00  0.11615346784E+01  0.00000000000E+00 0.  1.
         11    1    1    2    0    0 -0.47644066852E+00 -0.10632784972E+01 -0.45252952664E+02  0.45267949829E+02  0.00000000000E+00 0. -1.
        -15    1    1    2    0    0 -0.51893813775E+00 -0.21113850407E+01  0.28555177486E+02  0.28692910863E+02  0.17770000000E+01 0.  1.
         15    1    1    2    0    0  0.44998057236E+00  0.29323195725E+01  0.15701294884E+02  0.16077604629E+02  0.17770000000E+01 0.  1.
</event>
<event>
 6    1  0.3691007E-002  0.5023521E+02  0.7546771E-02  0.1296851E+00
        -11   -1    0    0    0    0  0.00000000000E+00  0.00000000000E+00  0.45600000000E+02  0.45600000000E+02  0.00000000000E+00 0.  1.
         11   -1    0    0    0    0 -0.00000000000E+00 -0.00000000000E+00 -0.45600000000E+02  0.45600000000E+02  0.00000000000E+00 0.  1.
        -11    1    1    2    0    0  0.17180578583E+01  0.27572031192E+01  0.40835766691E+02  0.40964786501E+02  0.00000000000E+00 0.  1.
         11    1    1    2    0    0 -0.57580935074E+00 -0.31434550480E+01 -0.35223140639E+02  0.35367817328E+02  0.00000000000E+00 0.  1.
        -15    1    1    2    0    0 -0.22711095179E+01  0.17421527682E+01  0.38285040843E+01  0.50998242356E+01  0.17770000000E+01 0.  1.
         15    1    1    2    0    0  0.11288610104E+01 -0.13559008394E+01 -0.94411301360E+01  0.97675719353E+01  0.17770000000E+01 0. -1.
</event>
<event>
 6    1  0.3691007E-002  0.4674135E+02  0.7546771E-02  0.1312608E+00
        -11   -1    0    0    0    0  0.00000000000E+00  0.00000000000E+00  0.45600000000E+02  0.45600000000E+02  0.00000000000E+00 0. -1.
         11   -1    0    0    0    0 -0.00000000000E+00 -0.00000000000E+00 -0.45600000000E+02  0.45600000000E+02  0.00000000000E+00 0.  1.
        -11    1    1    2    0    0 -0.76140128545E+00 -0.15890769464E+01  0.37252233515E+02  0.37293884208E+02  0.00000000000E+00 0. -1.
         11    1    1    2    0    0 -0.59614237683E+00  0.29872551001E+00 -0.44453649571E+02  0.44458650259E+02  0.00000000000E+00 0.  1.
        -15    1    1    2    0    0  0.19432534232E+01 -0.10553113584E+01  0.49157037585E+01  0.56755430024E+01  0.17770000000E+01 0. -1.
         15    1    1    2    0    0 -0.58570976096E+00  0.23456627948E+01  0.22857122975E+01  0.37719225308E+01  0.17770000000E+01 0.  1.
</event>
<event>
 6    1  0.3691007E-002  0.4169024E+02  0.7546771E-02  0.1338427E+00
        -11   -1    0    0    0    0  0.00000000000E+00  0.00000000000E+00  0.45600000000E+02  0.45600000000E+02  0.00000000000E+00 0. -1.
         11   -1    0    0    0    0 -0.00000000000E+00 -0.00000000000E+00 -0.45600000000E+02  0.45600000000E+02  0.00000000000E+00 0. -1.
        -11    1    1    2    0    0 -0.11094643637E+01 -0.27353795240E+01  0.42064489901E+02  0.42167932400E+02  0.00000000000E+00 0. -1.
         11    1    1    2    0    0  0.23416648731E+01 -0.15889603596E+01 -0.41240790259E+02  0.41337766880E+02  0.00000000000E+00 0. -1.
        -15    1    1    2    0    0 -0.18923511026E+01 -0.69652808939E-01 -0.12649344226E+01  0.28885346290E+01  0.17770000000E+01 0.  1.
         15    1    1    2    0    0  0.66015059324E+00  0.43939926925E+01  0.44123478136E+00  0.48057660908E+01  0.17770000000E+01 0. -1.
</event>
<event>
 6    1  0.3691007E-002  0.4587903E+02  0.7546771E-02  0.1316742E+00
        -11   -1    0    0    0    0  0.00000000000E+00  0.00000000000E+00  0.45600000000E+02  0.45600000000E+02  0.00000000000E+00 0.  1.
         11   -1    0    0    0    0 -0.00000000000E+00 -0.00000000000E+00 -0.45600000000E+02  0.45600000000E+02  0.00000000000E+00 0. -1.
        -11    1    1    2    0    0 -0.10572015030E+01  0.10248899933E+01  0.26614982064E+02  0.26655681285E+02  0.00000000000E+00 0.  1.
         11    1    1    2    0    0  0.52613980295E+00  0.45719088942E+00 -0.45315614266E+02  0.45320974646E+02  0.00000000000E+00 0. -1.
        -15    1    1    2    0    0  0.13248691647E+01 -0.78934377356E+00  0.11124723957E+02  0.11370820288E+02  0.17770000000E+01 0.  1.
         15    1    1    2    0    0 -0.79380746473E+00 -0.69273710912E+00  0.75759082448E+01  0.78525237808E+01  0.17770000000E+01 0. -1.
</event>
<event>
 6    1  0.3691007E-002  0.4696003E+02  0.7546771E-02  0.1311576E+00
        -11   -1    0    0    0    0  0.00000000000E+00  0.00000000000E+00  0.45600000000E+02  0.45600000000E+02  0.00000000000E+00 0. -1.
         11   -1    0    0    0    0 -0.00000000000E+00 -0.00000000000E+00 -0.45600000000E+02  0.45600000000E+02  0.00000000000E+00 0.  1.
        -11    1    1    2    0    0 -0.18604259799E+01  0.30078393991E+00  0.40847515376E+02  0.40890966829E+02  0.00000000000E+00 0. -1.
         11    1    1    2    0    0  0.11757980517E+01 -0.11648167435E+01 -0.44208996036E+02  0.44239966429E+02  0.00000000000E+00 0.  1.
        -15    1    1    2    0    0  0.20350693244E+01  0.59860620634E+00  0.14815562965E+01  0.31388811072E+01  0.17770000000E+01 0. -1.
         15    1    1    2    0    0 -0.13504413962E+01  0.26542659726E+00  0.18799243639E+01  0.29301856353E+01  0.17770000000E+01 0. -1.
</event>
<event>
 6    1  0.3691007E-002  0.4940591E+02  0.7546771E-02  0.1300455E+00
        -11   -1    0    0    0    0  0.00000000000E+00  0.00000000000E+00  0.45600000000E+02  0.45600000000E+02  0.00000000000E+00 0.  1.
         11   -1    0    0    0    0 -0.00000000000E+00 -0.00000000000E+00 -0.45600000000E+02  0.45600000000E+02  0.00000000000E+00 0. -1.
        -11    1    1    2    0    0  0.31930891262E+00 -0.81125921087E+00  0.41784995359E+02  0.41794089736E+02  0.00000000000E+00 0.  1.
         11    1    1    2    0    0 -0.34453839852E+01  0.47848654304E+00 -0.38563516067E+02  0.38720077371E+02  0.00000000000E+00 0. -1.
        -15    1    1    2    0    0  0.54510866141E+01 -0.22645709238E+01 -0.27315497945E+01  0.67425306839E+01  0.17770000000E+01 0. -1.
         15    1    1    2    0    0 -0.23250115415E+01  0.25973435917E+01 -0.48992949776E+00  0.39433022093E+01  0.17770000000E+01 0.  1.
</event>
<event>
 6    1  0.3691007E-002  0.4737204E+02  0.7546771E-02  0.1309648E+00
        -11   -1    0    0    0    0  0.00000000000E+00  0.00000000000E+00  0.45600000000E+02  0.45600000000E+02  0.00000000000E+00 0.  1.
         11   -1    0    0    0    0 -0.00000000000E+00 -0.00000000000E+00 -0.45600000000E+02  0.45600000000E+02  0.00000000000E+00 0.  1.
        -11    1    1    2    0    0  0.77664638969E+00 -0.20973222823E+00  0.43820573648E+02  0.43827957311E+02  0.00000000000E+00 0.  1.
         11    1    1    2    0    0  0.10848803384E+01  0.98802508342E-03 -0.40056522667E+02  0.40071211293E+02  0.00000000000E+00 0.  1.
        -15    1    1    2    0    0 -0.25152376313E+01  0.59771378428E+00 -0.42739856266E+01  0.53017321930E+01  0.17770000000E+01 0.  1.
         15    1    1    2    0    0  0.65371090319E+00 -0.38896958113E+00  0.50993464509E+00  0.19990992027E+01  0.17770000000E+01 0.  1.
</event>
<event>
 6    1  0.3691007E-002  0.4656486E+02  0.7546771E-02  0.1313446E+00
        -11   -1    0    0    0    0  0.00000000000E+00  0.00000000000E+00  0.45600000000E+02  0.45600000000E+02  0.00000000000E+00 0.  1.
         11   -1    0    0    0    0 -0.00000000000E+00 -0.00000000000E+00 -0.45600000000E+02  0.45600000000E+02  0.00000000000E+00 0. -1.
        -11    1    1    2    0    0  0.88636898772E+00  0.72041207311E+00  0.44620518894E+02  0.44635135823E+02  0.00000000000E+00 0.  1.
         11    1    1    2    0    0 -0.12666962526E+01  0.48172309234E-01 -0.39696245505E+02  0.39716479541E+02  0.00000000000E+00 0. -1.
        -15    1    1    2    0    0  0.13020444722E+01  0.45692760074E+00 -0.15268752370E+01  0.27190402037E+01  0.17770000000E+01 0. -1.
         15    1    1    2    0    0 -0.92171720731E+00 -0.12255119831E+01 -0.33973981526E+01  0.41293444320E+01  0.17770000000E+01 0.  1.
</event>
<event>
 6    1  0.3691007E-002  0.3224227E+02  0.7546771E-02  0.1400432E+00
        -11   -1    0    0    0    0  0.00000000000E+00  0.00000000000E+00  0.45600000000E+02  0.45600000000E+02  0.00000000000E+00 0. -1.
         11   -1    0    0    0    0 -0.00000000000E+00 -0.00000000000E+00 -0.45600000000E+02  0.45600000000E+02  0.00000000000E+00 0. -1.
        -11    1    1    2    0    0 -0.10895463836E+02 -0.11067858267E+02  0.21440884225E+02  0.26474896320E+02  0.00000000000E+00 0. -1.
         11    1    1    2    0    0  0.37015657365E+01 -0.78895060099E-01 -0.37234605885E+02  0.37418226691E+02  0.00000000000E+00 0. -1.
        -15    1    1    2    0    0 -0.51912504691E+01  0.45420843268E+00  0.20859038466E+01  0.58876235096E+01  0.17770000000E+01 0. -1.
         15    1    1    2    0    0  0.12385148569E+02  0.10692544894E+02  0.13707817813E+02  0.21419253479E+02  0.17770000000E+01 0.  1.
</event>
<event>
 6    1  0.3691007E-002  0.4621295E+02  0.7546771E-02  0.1315129E+00
        -11   -1    0    0    0    0  0.00000000000E+00  0.00000000000E+00  0.45600000000E+02  0.45600000000E+02  0.00000000000E+00 0. -1.
         11   -1    0    0    0    0 -0.00000000000E+00 -0.00000000000E+00 -0.45600000000E+02  0.45600000000E+02  0.00000000000E+00 0.  1.
        -11    1    1    2    0    0 -0.65445760437E+00 -0.50222908954E-01  0.20342446570E+02  0.20353033424E+02  0.00000000000E+00 0. -1.
         11    1    1    2    0    0  0.17766368297E+00  0.80434799223E+00 -0.44979503389E+02  0.44987045526E+02  0.00000000000E+00 0.  1.
        -15    1    1    2    0    0 -0.26009478608E+01  0.25428473686E+00  0.52800481060E+01  0.61535540546E+01  0.17770000000E+01 0.  1.
         15    1    1    2    0    0  0.30777417822E+01 -0.10084098201E+01  0.19357008713E+02  0.19706366995E+02  0.17770000000E+01 0. -1.
</event>
<event>
 6    1  0.3691007E-002  0.4617519E+02  0.7546771E-02  0.1315310E+00
        -11   -1    0    0    0    0  0.00000000000E+00  0.00000000000E+00  0.45600000000E+02  0.45600000000E+02  0.00000000000E+00 0.  1.
         11   -1    0    0    0    0 -0.00000000000E+00 -0.00000000000E+00 -0.45600000000E+02  0.45600000000E+02  0.00000000000E+00 0. -1.
        -11    1    1    2    0    0 -0.25050847120E+01 -0.17811559600E+01  0.44919769050E+02  0.45024811132E+02  0.00000000000E+00 0.  1.
         11    1    1    2    0    0  0.26495721044E+01 -0.17751668785E+01 -0.25356925660E+02  0.25556704183E+02  0.00000000000E+00 0. -1.
        -15    1    1    2    0    0  0.16901444831E+01  0.19189520164E+01 -0.13297319961E+02  0.13657064559E+02  0.17770000000E+01 0.  1.
         15    1    1    2    0    0 -0.18346318755E+01  0.16373708221E+01 -0.62655234290E+01  0.69614201258E+01  0.17770000000E+01 0. -1.
</event>
<event>
 6    1  0.3691007E-002  0.4616672E+02  0.7546771E-02  0.1315351E+00
        -11   -1    0    0    0    0  0.00000000000E+00  0.00000000000E+00  0.45600000000E+02  0.45600000000E+02  0.00000000000E+00 0. -1.
         11   -1    0    0    0    0 -0.00000000000E+00 -0.00000000000E+00 -0.45600000000E+02  0.45600000000E+02  0.00000000000E+00 0. -1.
        -11    1    1    2    0    0  0.18751134774E+00 -0.50398446255E+00  0.28674954990E+02  0.28679996592E+02  0.00000000000E+00 0. -1.
         11    1    1    2    0    0 -0.39659128530E+01  0.33002619395E+00 -0.44857095993E+02  0.45033281504E+02  0.00000000000E+00 0. -1.
        -15    1    1    2    0    0  0.43238473296E+01  0.26647023864E-01  0.10190113845E+02  0.11211267322E+02  0.17770000000E+01 0. -1.
         15    1    1    2    0    0 -0.54544582432E+00  0.14731124474E+00  0.59920271582E+01  0.62754545823E+01  0.17770000000E+01 0. -1.
</event>
<event>
 6    1  0.3691007E-002  0.4718695E+02  0.7546771E-02  0.1310511E+00
        -11   -1    0    0    0    0  0.00000000000E+00  0.00000000000E+00  0.45600000000E+02  0.45600000000E+02  0.00000000000E+00 0.  1.
         11   -1    0    0    0    0 -0.00000000000E+00 -0.00000000000E+00 -0.45600000000E+02  0.45600000000E+02  0.00000000000E+00 0. -1.
        -11    1    1    2    0    0  0.51352790559E+00 -0.30751533513E+01  0.43902485366E+02  0.44013049205E+02  0.00000000000E+00 0.  1.
         11    1    1    2    0    0  0.91779816606E+00 -0.53262502213E+00 -0.36686940215E+02  0.36702283652E+02  0.00000000000E+00 0. -1.
        -15    1    1    2    0    0 -0.16813130199E+01  0.66635028171E+00 -0.64842171298E+01  0.69623011250E+01  0.17770000000E+01 0. -1.
         15    1    1    2    0    0  0.24998694821E+00  0.29414280917E+01 -0.73132802034E+00  0.35223660182E+01  0.17770000000E+01 0. -1.
</event>
<event>
 6    1  0.3691007E-002  0.4758898E+02  0.7546771E-02  0.1308643E+00
        -11   -1    0    0    0    0  0.00000000000E+00  0.00000000000E+00  0.45600000000E+02  0.45600000000E+02  0.00000000000E+00 0.  1.
         11   -1    0    0    0    0 -0.00000000000E+00 -0.00000000000E+00 -0.45600000000E+02  0.45600000000E+02  0.00000000000E+00 0.  1.
        -11    1    1    2    0    0 -0.14509466848E-01  0.72145797378E+00  0.15263062478E+02  0.15280110874E+02  0.00000000000E+00 0.  1.
         11    1    1    2    0    0 -0.75615251863E+00 -0.28538021011E+00 -0.43603533868E+02  0.43611023540E+02  0.00000000000E+00 0.  1.
        -15    1    1    2    0    0 -0.49250010592E+01 -0.14277043699E+00  0.25311511011E+01  0.58172565465E+01  0.17770000000E+01 0.  1.
         15    1    1    2    0    0  0.56956630447E+01 -0.29330732668E+00  0.25809320289E+02  0.26491609039E+02  0.17770000000E+01 0.  1.
</event>
<event>
 6    1  0.3691007E-002  0.4832656E+02  0.7546771E-02  0.1305269E+00
        -11   -1    0    0    0    0  0.00000000000E+00  0.00000000000E+00  0.45600000000E+02  0.45600000000E+02  0.00000000000E+00 0. -1.
         11   -1    0    0    0    0 -0.00000000000E+00 -0.00000000000E+00 -0.45600000000E+02  0.45600000000E+02  0.00000000000E+00 0. -1.
        -11    1    1    2    0    0 -0.37136505887E+01 -0.25279289712E+01  0.34049361614E+02  0.34344441354E+02  0.00000000000E+00 0. -1.
         11    1    1    2    0    0 -0.38126878911E+00  0.16531291844E+01 -0.42839859345E+02  0.42873438755E+02  0.00000000000E+00 0. -1.
        -15    1    1    2    0    0 -0.14772522564E+01  0.34493782710E+01  0.18426371960E+01  0.45424140632E+01  0.17770000000E+01 0.  1.
         15    1    1    2    0    0  0.55721716343E+01 -0.25745784841E+01  0.69478605352E+01  0.94397058274E+01  0.17770000000E+01 0. -1.
</event>
<event>
 6    1  0.3691007E-002  0.4816349E+02  0.7546771E-02  0.1306009E+00
        -11   -1    0    0    0    0  0.00000000000E+00  0.00000000000E+00  0.45600000000E+02  0.45600000000E+02  0.00000000000E+00 0.  1.
         11   -1    0    0    0    0 -0.00000000000E+00 -0.00000000000E+00 -0.45600000000E+02  0.45600000000E+02  0.00000000000E+00 0.  1.
        -11    1    1    2    0    0 -0.57653003168E+00 -0.56989806890E+00  0.43028876431E+02  0.43036512145E+02  0.00000000000E+00 0.  1.
         11    1    1    2    0    0  0.29292729235E+00 -0.23555859740E+01 -0.37551784364E+02  0.37626733855E+02  0.00000000000E+00 0.  1.
        -15    1    1    2    0    0 -0.10873746837E+01 -0.47268011591E+00  0.13930260823E+01  0.25503060327E+01  0.17770000000E+01 0. -1.
         15    1    1    2    0    0  0.13709774231E+01  0.33981641588E+01 -0.68701181498E+01  0.79864479675E+01  0.17770000000E+01 0.  1.
</event>
<event>
 6    1  0.3691007E-002  0.3034729E+02  0.7546771E-02  0.1415916E+00
        -11   -1    0    0    0    0  0.00000000000E+00  0.00000000000E+00  0.45600000000E+02  0.45600000000E+02  0.00000000000E+00 0. -1.
         11   -1    0    0    0    0 -0.00000000000E+00 -0.00000000000E+00 -0.45600000000E+02  0.45600000000E+02  0.00000000000E+00 0. -1.
        -11    1    1    2    0    0  0.65837956299E+01  0.35485794538E+01  0.43092190253E+01  0.86318103342E+01  0.00000000000E+00 0. -1.
         11    1    1    2    0    0  0.14073080815E+01 -0.11648111091E+01 -0.19388973083E+02  0.19474844753E+02  0.00000000000E+00 0. -1.
        -15    1    1    2    0    0  0.20385195638E+02 -0.12659462974E+01 -0.12048334088E+02  0.23779800347E+02  0.17770000000E+01 0.  1.
         15    1    1    2    0    0 -0.28376299349E+02 -0.11178220473E+01  0.27128088146E+02  0.39313544566E+02  0.17770000000E+01 0. -1.
</event>
<event>
 6    1  0.3691007E-002  0.5127791E+02  0.7546771E-02  0.1292431E+00
        -11   -1    0    0    0    0  0.00000000000E+00  0.00000000000E+00  0.45600000000E+02  0.45600000000E+02  0.00000000000E+00 0. -1.
         11   -1    0    0    0    0 -0.00000000000E+00 -0.00000000000E+00 -0.45600000000E+02  0.45600000000E+02  0.00000000000E+00 0.  1.
        -11    1    1    2    0    0  0.23435111618E+01 -0.26118998459E+01  0.39767564425E+02  0.39922089696E+02  0.00000000000E+00 0. -1.
         11    1    1    2    0    0 -0.41486481331E+00  0.51315641491E+00 -0.22190308899E+02  0.22200118274E+02  0.00000000000E+00 0.  1.
        -15    1    1    2    0    0  0.50515876709E+01  0.50428959622E+01 -0.19686334286E+02  0.21015680439E+02  0.17770000000E+01 0.  1.
         15    1    1    2    0    0 -0.69802340194E+01 -0.29441525312E+01  0.21090787601E+01  0.80621115912E+01  0.17770000000E+01 0. -1.
</event>
<event>
 6    1  0.3691007E-002  0.4703757E+02  0.7546771E-02  0.1311211E+00
        -11   -1    0    0    0    0  0.00000000000E+00  0.00000000000E+00  0.45600000000E+02  0.45600000000E+02  0.00000000000E+00 0.  1.
         11   -1    0    0    0    0 -0.00000000000E+00 -0.00000000000E+00 -0.45600000000E+02  0.45600000000E+02  0.00000000000E+00 0. -1.
        -11    1    1    2    0    0  0.96062451443E+00  0.43545023076E+01  0.43936719692E+02  0.44162425512E+02  0.00000000000E+00 0.  1.
         11    1    1    2    0    0 -0.12801069218E+01 -0.13862094747E+01 -0.29753239416E+02  0.29813009009E+02  0.00000000000E+00 0. -1.
        -15    1    1    2    0    0 -0.40962255331E+01 -0.11216878886E+01 -0.77116287965E+01  0.89813247927E+01  0.17770000000E+01 0. -1.
         15    1    1    2    0    0  0.44157079404E+01 -0.18466049443E+01 -0.64718514798E+01  0.82432406863E+01  0.17770000000E+01 0.  1.
</event>
<event>
 6    1  0.3691007E-002  0.4632046E+02  0.7546771E-02  0.1314613E+00
        -11   -1    0    0    0    0  0.00000000000E+00  0.00000000000E+00  0.45600000000E+02  0.45600000000E+02  0.00000000000E+00 0. -1.
         11   -1    0    0    0    0 -0.00000000000E+00 -0.00000000000E+00 -0.45600000000E+02  0.45600000000E+02  0.00000000000E+00 0. -1.
        -11    1    1    2    0    0 -0.29819258415E+00 -0.93711949521E+00  0.44868763835E+02  0.44879539657E+02  0.00000000000E+00 0. -1.
         11    1    1    2    0    0  0.33097230545E+00 -0.10105087186E+01 -0.29009730048E+02  0.29029211288E+02  0.00000000000E+00 0. -1.
        -15    1    1    2    0    0 -0.34251211379E+00  0.25613930199E+01 -0.14764455923E+02  0.15093870824E+02  0.17770000000E+01 0.  1.
         15    1    1    2    0    0  0.30973239248E+00 -0.61376480613E+00 -0.10945778636E+01  0.21973782314E+01  0.17770000000E+01 0. -1.
</event>
<event>
 6    1  0.3691007E-002  0.4675180E+02  0.7546771E-02  0.1312558E+00
        -11   -1    0    0    0    0  0.00000000000E+00  0.00000000000E+00  0.45600000000E+02  0.45600000000E+02  0.00000000000E+00 0.  1.
         11   -1    0    0    0    0 -0.00000000000E+00 -0.00000000000E+00 -0.45600000000E+02  0.45600000000E+02  0.00000000000E+00 0.  1.
        -11    1    1    2    0    0 -0.13396857945E+01 -0.18592035546E+01  0.27977718511E+02  0.28071411239E+02  0.00000000000E+00 0.  1.
         11    1    1    2    0    0  0.25176058635E+01  0.48541453661E+00 -0.44374191470E+02  0.44448203959E+02  0.00000000000E+00 0.  1.
        -15    1    1    2    0    0 -0.22747801405E+01 -0.85875140852E+00  0.13046381895E+01  0.32820555259E+01  0.17770000000E+01 0.  1.
         15    1    1    2    0    0  0.10968600715E+01  0.22325404265E+01  0.15091834770E+02  0.15398329276E+02  0.17770000000E+01 0.  1.
</event>
<event>
 6    1  0.3691007E-002  0.4144481E+02  0.7546771E-02  0.1339789E+00
        -11   -1    0    0    0    0  0.00000000000E+00  0.00000000000E+00  0.45600000000E+02  0.45600000000E+02  0.00000000000E+00 0. -1.
         11   -1    0    0    0    0 -0.00000000000E+00 -0.00000000000E+00 -0.45600000000E+02  0.45600000000E+02  0.00000000000E+00 0. -1.
        -11    1    1    2    0    0 -0.12135803386E+00 -0.64064849176E+00  0.41703587797E+02  0.41708684868E+02  0.00000000000E+00 0. -1.
         11    1    1    2    0    0  0.31082244312E+00 -0.40018729137E+01 -0.41117670871E+02  0.41313126912E+02  0.00000000000E+00 0. -1.
        -15    1    1    2    0    0 -0.17494365997E+01  0.27853595845E+01  0.19754932405E+01  0.42283636285E+01  0.17770000000E+01 0. -1.
         15    1    1    2    0    0  0.15599721905E+01  0.18571618210E+01 -0.25614101660E+01  0.39498245915E+01  0.17770000000E+01 0.  1.
</event>
<event>
 6    1  0.3691007E-002  0.5326815E+02  0.7546771E-02  0.1284320E+00
        -11   -1    0    0    0    0  0.00000000000E+00  0.00000000000E+00  0.45600000000E+02  0.45600000000E+02  0.00000000000E+00 0. -1.
         11   -1    0    0    0    0 -0.00000000000E+00 -0.00000000000E+00 -0.45600000000E+02  0.45600000000E+02  0.00000000000E+00 0.  1.
        -11    1    1    2    0    0  0.20739837535E+01 -0.19073270566E+01  0.37827051015E+02  0.37931848011E+02  0.00000000000E+00 0. -1.
         11    1    1    2    0    0 -0.13435255619E+01  0.32151338224E+01 -0.23829258450E+02  0.24082684749E+02  0.00000000000E+00 0.  1.
        -15    1    1    2    0    0 -0.34533223959E+01 -0.97188410081E+00 -0.21042182902E+02  0.21419644828E+02  0.17770000000E+01 0.  1.
         15    1    1    2    0    0  0.27228642042E+01 -0.33592266503E+00  0.70443903372E+01  0.77658224120E+01  0.17770000000E+01 0.  1.
</event>
<event>
 6    1  0.3691007E-002  0.3943859E+02  0.7546771E-02  0.1351342E+00
        -11   -1    0    0    0    0  0.00000000000E+00  0.00000000000E+00  0.45600000000E+02  0.45600000000E+02  0.00000000000E+00 0. -1.
         11   -1    0    0    0    0 -0.00000000000E+00 -0.00000000000E+00 -0.45600000000E+02  0.45600000000E+02  0.00000000000E+00 0.  1.
        -11    1    1    2    0    0 -0.35612656037E+01  0.25856702281E+01  0.38842433396E+02  0.39090957207E+02  0.00000000000E+00 0. -1.
         11    1    1    2    0    0  0.90548713581E-01  0.96078165511E+00 -0.39938096165E+02  0.39949753764E+02  0.00000000000E+00 0.  1.
        -15    1    1    2    0    0 -0.16686094291E+00 -0.39967745190E+01  0.49106890491E+01  0.65783466819E+01  0.17770000000E+01 0.  1.
         15    1    1    2    0    0  0.36375778330E+01  0.45032263575E+00 -0.38150262801E+01  0.55809423474E+01  0.17770000000E+01 0. -1.
</event>
<event>
 6    1  0.3691007E-002  0.5178849E+02  0.7546771E-02  0.1290310E+00
        -11   -1    0    0    0    0  0.00000000000E+00  0.00000000000E+00  0.45600000000E+02  0.45600000000E+02  0.00000000000E+00 0.  1.
         11   -1    0    0    0    0 -0.00000000000E+00 -0.00000000000E+00 -0.45600000000E+02  0.45600000000E+02  0.00000000000E+00 0. -1.
        -11    1    1    2    0    0  0.66293260530E+00 -0.24909618445E+01  0.27920727480E+02  0.28039461363E+02  0.00000000000E+00 0.  1.
         11    1    1    2    0    0  0.71016002108E-01 -0.66592134921E+00 -0.39405819743E+02  0.39411510047E+02  0.00000000000E+00 0. -1.
        -15    1    1    2    0    0 -0.19050433225E+01  0.49781816594E+01 -0.46988238371E+01  0.73244902312E+01  0.17770000000E+01 0. -1.
         15    1    1    2    0    0  0.11710947151E+01 -0.18212984657E+01  0.16183916101E+02  0.16424538359E+02  0.17770000000E+01 0.  1.
</event>
<event>
 6    1  0.3691007E-002  0.4836054E+02  0.7546771E-02  0.1305115E+00
        -11   -1    0    0    0    0  0.00000000000E+00  0.00000000000E+00  0.45600000000E+02  0.45600000000E+02  0.00000000000E+00 0.  1.
         11   -1    0    0    0    0 -0.00000000000E+00 -0.00000000000E+00 -0.45600000000E+02  0.45600000000E+02  0.00000000000E+00 0.  1.
        -11    1    1    2    0    0  0.41498399624E+01 -0.32564228498E+01  0.15141224497E+02  0.16033781237E+02  0.00000000000E+00 0.  1.
         11    1    1    2    0    0  0.12750319045E+01 -0.72233485076E+00 -0.42814386470E+02  0.42839458013E+02  0.00000000000E+00 0.  1.
        -15    1    1    2    0    0  0.41644464617E+01 -0.22931673152E+01  0.74320197633E+01  0.89996598508E+01  0.17770000000E+01 0.  1.
         15    1    1    2    0    0 -0.95893183286E+01  0.62719250158E+01  0.20241142210E+02  0.23327100900E+02  0.17770000000E+01 0. -1.
</event>
<event>
 6    1  0.3691007E-002  0.4799054E+02  0.7546771E-02  0.1306797E+00
        -11   -1    0    0    0    0  0.00000000000E+00  0.00000000000E+00  0.45600000000E+02  0.45600000000E+02  0.00000000000E+00 0. -1.
         11   -1    0    0    0    0 -0.00000000000E+00 -0.00000000000E+00 -0.45600000000E+02  0.45600000000E+02  0.00000000000E+00 0.  1.
        -11    1    1    2    0    0 -0.50247898470E+00  0.52740457215E+00  0.43203319418E+02  0.43209460185E+02  0.00000000000E+00 0. -1.
         11    1    1    2    0    0 -0.12422238824E+01 -0.41870880098E+01 -0.26368615124E+02  0.26727863546E+02  0.00000000000E+00 0.  1.
        -15    1    1    2    0    0 -0.32363072216E+01  0.51604692734E+01 -0.13274891191E+02  0.14713415398E+02  0.17770000000E+01 0.  1.
         15    1    1    2    0    0  0.49810100887E+01 -0.15007858357E+01 -0.35598131030E+01  0.65492608710E+01  0.17770000000E+01 0. -1.
</event>
<event>
 6    1  0.3691007E-002  0.4938196E+02  0.7546771E-02  0.1300560E+00
        -11   -1    0    0    0    0  0.00000000000E+00  0.00000000000E+00  0.45600000000E+02  0.45600000000E+02  0.00000000000E+00 0. -1.
         11   -1    0    0    0    0 -0.00000000000E+00 -0.00000000000E+00 -0.45600000000E+02  0.45600000000E+02  0.00000000000E+00 0.  1.
        -11    1    1    2    0    0  0.17562524585E+01  0.17081753023E+01  0.21552366355E+02  0.21691168274E+02  0.00000000000E+00 0. -1.
         11    1    1    2    0    0  0.27224850910E+01  0.42658107379E+01 -0.41510715225E+02  0.41818040901E+02  0.00000000000E+00 0.  1.
        -15    1    1    2    0    0 -0.36231785176E+01  0.22175458305E+01 -0.13323559039E+01  0.47935199317E+01  0.17770000000E+01 0.  1.
         15    1    1    2    0    0 -0.85555903201E+00 -0.81915318707E+01  0.21290704773E+02  0.22897270894E+02  0.17770000000E+01 0. -1.
</event>
<event>
 6    1  0.3691007E-002  0.4185151E+02  0.7546771E-02  0.1337539E+00
        -11   -1    0    0    0    0  0.00000000000E+00  0.00000000000E+00  0.45600000000E+02  0.45600000000E+02  0.00000000000E+00 0. -1.
         11   -1    0    0    0    0 -0.00000000000E+00 -0.00000000000E+00 -0.45600000000E+02  0.45600000000E+02  0.00000000000E+00 0.  1.
        -11    1    1    2    0    0  0.16021988774E+01 -0.14242057552E+01  0.41964959581E+02  0.42019676771E+02  0.00000000000E+00 0. -1.
         11    1    1    2    0    0 -0.37118832673E+01 -0.23849031309E+01 -0.41563965427E+02  0.41797476746E+02  0.00000000000E+00 0.  1.
        -15    1    1    2    0    0  0.12632025101E+01  0.77658008893E+00  0.19867590864E+01  0.30501963680E+01  0.17770000000E+01 0. -1.
         15    1    1    2    0    0  0.84648187986E+00  0.30325287972E+01 -0.23877532409E+01  0.43326501149E+01  0.17770000000E+01 0.  1.
</event>
<event>
 6    1  0.3691007E-002  0.5018837E+02  0.7546771E-02  0.1297052E+00
        -11   -1    0    0    0    0  0.00000000000E+00  0.00000000000E+00  0.45600000000E+02  0.45600000000E+02  0.00000000000E+00 0.  1.
         11   -1    0    0    0    0 -0.00000000000E+00 -0.00000000000E+00 -0.45600000000E+02  0.45600000000E+02  0.00000000000E+00 0. -1.
        -11    1    1    2    0    0  0.60688254424E+00  0.44502873292E+00  0.41004723031E+02  0.41011628446E+02  0.00000000000E+00 0.  1.
         11    1    1    2    0    0 -0.14153669074E+00  0.55177638070E+00 -0.39859924292E+02  0.39863994461E+02  0.00000000000E+00 0. -1.
        -15    1    1    2    0    0 -0.61973443893E+00 -0.50544079961E+01 -0.21042715850E+01  0.57893694708E+01  0.17770000000E+01 0. -1.
         15    1    1    2    0    0  0.15438858543E+00  0.40576028825E+01  0.95947284659E+00  0.45350076219E+01  0.17770000000E+01 0. -1.
</event>
<event>
 6    1  0.3691007E-002  0.5068432E+02  0.7546771E-02  0.1294932E+00
        -11   -1    0    0    0    0  0.00000000000E+00  0.00000000000E+00  0.45600000000E+02  0.45600000000E+02  0.00000000000E+00 0.  1.
         11   -1    0    0    0    0 -0.00000000000E+00 -0.00000000000E+00 -0.45600000000E+02  0.45600000000E+02  0.00000000000E+00 0.  1.
        -11    1    1    2    0    0 -0.54766136556E+00  0.51416207783E+00  0.29321375336E+02  0.29330996356E+02  0.00000000000E+00 0.  1.
         11    1    1    2    0    0 -0.10002108343E+01  0.69788302412E+00 -0.40497322997E+02  0.40515683782E+02  0.00000000000E+00 0.  1.
        -15    1    1    2    0    0  0.65993680249E+01  0.11632998777E+01  0.13400041145E+02  0.15087205063E+02  0.17770000000E+01 0.  1.
         15    1    1    2    0    0 -0.50514958250E+01 -0.23753449796E+01 -0.22240934842E+01  0.62661147986E+01  0.17770000000E+01 0. -1.
</event>
<event>
 6    1  0.3691007E-002  0.4693198E+02  0.7546771E-02  0.1311708E+00
        -11   -1    0    0    0    0  0.00000000000E+00  0.00000000000E+00  0.45600000000E+02  0.45600000000E+02  0.00000000000E+00 0.  1.
         11   -1    0    0    0    0 -0.00000000000E+00 -0.00000000000E+00 -0.45600000000E+02  0.45600000000E+02  0.00000000000E+00 0. -1.
        -11    1    1    2    0    0 -0.28302535844E+00 -0.64660432829E+00  0.40524530366E+02  0.40530676800E+02  0.00000000000E+00 0.  1.
         11    1    1    2    0    0 -0.28994413237E+01 -0.34457673840E+00 -0.44171620139E+02  0.44268019143E+02  0.00000000000E+00 0. -1.
        -15    1    1    2    0    0  0.10348104325E+01  0.12309253791E+01  0.21914660205E+01  0.32475009221E+01  0.17770000000E+01 0.  1.
         15    1    1    2    0    0  0.21476562496E+01 -0.23974431238E+00  0.14556237528E+01  0.31538031346E+01  0.17770000000E+01 0.  1.
</event>
<event>
 6    1  0.3691007E-002  0.4640420E+02  0.7546771E-02  0.1314212E+00
        -11   -1    0    0    0    0  0.00000000000E+00  0.00000000000E+00  0.45600000000E+02  0.45600000000E+02  0.00000000000E+00 0.  1.
         11   -1    0    0    0    0 -0.00000000000E+00 -0.00000000000E+00 -0.45600000000E+02  0.45600000000E+02  0.00000000000E+00 0. -1.
        -11    1    1    2    0    0 -0.23497148247E+01  0.29306505939E+01  0.44638029851E+02  0.44795798705E+02  0.00000000000E+00 0.  1.
         11    1    1    2    0    0 -0.14382347093E+01 -0.30913278834E+01 -0.19054127757E+02  0.19356771729E+02  0.00000000000E+00 0. -1.
        -15    1    1    2    0    0  0.45740605052E+01 -0.11151750376E+01 -0.90851461968E+01  0.10385723628E+02  0.17770000000E+01 0.  1.
         15    1    1    2    0    0 -0.78611097126E+00  0.12758523270E+01 -0.16498755897E+02  0.16661705938E+02  0.17770000000E+01 0. -1.
</event>
<event>
 6    1  0.3691007E-002  0.4162518E+02  0.7546771E-02  0.1338787E+00
        -11   -1    0    0    0    0  0.00000000000E+00  0.00000000000E+00  0.45600000000E+02  0.45600000000E+02  0.00000000000E+00 0. -1.
         11   -1    0    0    0    0 -0.00000000000E+00 -0.00000000000E+00 -0.45600000000E+02  0.45600000000E+02  0.00000000000E+00 0. -1.
        -11    1    1    2    0    0  0.12519346530E+01  0.21062970662E+01  0.40218430543E+02  0.40293001663E+02  0.00000000000E+00 0. -1.
         11    1    1    2    0    0  0.33710766274E+01  0.10688983036E+01 -0.43049035231E+02  0.43194052085E+02  0.00000000000E+00 0. -1.
        -15    1    1    2    0    0 -0.30110524271E+01 -0.28761398264E+01  0.27433483333E+01  0.52936099306E+01  0.17770000000E+01 0. -1.
         15    1    1    2    0    0 -0.16119588533E+01 -0.29905554342E+00  0.87256355496E-01  0.24193363211E+01  0.17770000000E+01 0.  1.
</event>
<event>
 6    1  0.3691007E-002  0.4674193E+02  0.7546771E-02  0.1312605E+00
        -11   -1    0    0    0    0  0.00000000000E+00  0.00000000000E+00  0.45600000000E+02  0.45600000000E+02  0.00000000000E+00 0. -1.
         11   -1    0    0    0    0 -0.00000000000E+00 -0.00000000000E+00 -0.45600000000E+02  0.45600000000E+02  0.00000000000E+00 0.  1.
        -11    1    1    2    0    0 -0.17526265953E+01 -0.47602622937E+00  0.44420962033E+02  0.44458072033E+02  0.00000000000E+00 0. -1.
         11    1    1    2    0    0 -0.80551902071E+00 -0.10439396947E+01 -0.23893549015E+02  0.23929905046E+02  0.00000000000E+00 0.  1.
        -15    1    1    2    0    0  0.49861711332E+01 -0.13303104509E+01 -0.86068578891E+01  0.10191533751E+02  0.17770000000E+01 0.  1.
         15    1    1    2    0    0 -0.24280255172E+01  0.28502763749E+01 -0.11920555129E+02  0.12620489171E+02  0.17770000000E+01 0.  1.
</event>
<event>
 6    1  0.3691007E-002  0.4726198E+02  0.7546771E-02  0.1310161E+00
        -11   -1    0    0    0    0  0.00000000000E+00  0.00000000000E+00  0.45600000000E+02  0.45600000000E+02  0.00000000000E+00 0.  1.
         11   -1    0    0    0    0 -0.00000000000E+00 -0.00000000000E+00 -0.45600000000E+02  0.45600000000E+02  0.00000000000E+00 0.  1.
        -11    1    1    2    0    0 -0.48175108995E+00 -0.51460388086E+00  0.43932366770E+02  0.43938021704E+02  0.00000000000E+00 0.  1.
         11    1    1    2    0    0 -0.85164032605E+00  0.19006966783E+00 -0.29636737415E+02  0.29649580475E+02  0.00000000000E+00 0.  1.
        -15    1    1    2    0    0 -0.19684965542E+01  0.14208143730E+01 -0.13223301701E+02  0.13561236265E+02  0.17770000000E+01 0.  1.
         15    1    1    2    0    0  0.33018879702E+01 -0.10962801600E+01 -0.10723276539E+01  0.40511615562E+01  0.17770000000E+01 0. -1.
</event>
<event>
 6    1  0.3691007E-002  0.4124775E+02  0.7546771E-02  0.1340890E+00
        -11   -1    0    0    0    0  0.00000000000E+00  0.00000000000E+00  0.45600000000E+02  0.45600000000E+02  0.00000000000E+00 0.  1.
         11   -1    0    0    0    0 -0.00000000000E+00 -0.00000000000E+00 -0.45600000000E+02  0.45600000000E+02  0.00000000000E+00 0. -1.
        -11    1    1    2    0    0 -0.71387346097E+00 -0.12629082007E+01  0.41701505556E+02  0.41726731457E+02  0.00000000000E+00 0.  1.
         11    1    1    2    0    0 -0.58892162086E+00 -0.27594994494E+01 -0.40784656689E+02  0.40882146313E+02  0.00000000000E+00 0. -1.
        -15    1    1    2    0    0 -0.72529657732E+00 -0.11417459426E+01  0.10154669585E+01  0.24532715028E+01  0.17770000000E+01 0. -1.
         15    1    1    2    0    0  0.20280916592E+01  0.51641535927E+01 -0.19323158249E+01  0.61378507275E+01  0.17770000000E+01 0. -1.
</event>
<event>
 6    1  0.3691007E-002  0.4663599E+02  0.7546771E-02  0.1313107E+00
        -11   -1    0    0    0    0  0.00000000000E+00  0.00000000000E+00  0.45600000000E+02  0.45600000000E+02  0.00000000000E+00 0.  1.
         11   -1    0    0    0    0 -0.00000000000E+00 -0.00000000000E+00 -0.45600000000E+02  0.45600000000E+02  0.00000000000E+00 0.  1.
        -11    1    1    2    0    0 -0.71787861867E+00 -0.96506894026E+00  0.44547778996E+02  0.44564013747E+02  0.00000000000E+00 0.  1.
         11    1    1    2    0    0 -0.47386498879E+00  0.21330265994E+00 -0.33955103683E+02  0.33959079966E+02  0.00000000000E+00 0.  1.
        -15    1    1    2    0    0  0.27601913107E+01 -0.11479634148E+01 -0.78438810038E+01  0.85802490800E+01  0.17770000000E+01 0. -1.
         15    1    1    2    0    0 -0.15684477032E+01  0.18997296951E+01 -0.27487943093E+01  0.40966572065E+01  0.17770000000E+01 0.  1.
</event>
<event>
 6    1  0.3691007E-002  0.5049268E+02  0.7546771E-02  0.1295748E+00
        -11   -1    0    0    0    0  0.00000000000E+00  0.00000000000E+00  0.45600000000E+02  0.45600000000E+02  0.00000000000E+00 0.  1.
         11   -1    0    0    0    0 -0.00000000000E+00 -0.00000000000E+00 -0.45600000000E+02  0.45600000000E+02  0.00000000000E+00 0.  1.
        -11    1    1    2    0    0 -0.20751208191E+01 -0.50794990200E+00  0.36915773425E+02  0.36977540036E+02  0.00000000000E+00 0.  1.
         11    1    1    2    0    0  0.21775654048E+00 -0.62631159632E+00 -0.40701922707E+02  0.40707323618E+02  0.00000000000E+00 0.  1.
        -15    1    1    2    0    0  0.28041473485E+01 -0.23117589548E+01  0.72029479920E+01  0.82612142323E+01  0.17770000000E+01 0.  1.
         15    1    1    2    0    0 -0.94678306989E+00  0.34460204531E+01 -0.34167987105E+01  0.52539221133E+01  0.17770000000E+01 0.  1.
</event>
<event>
 6    1  0.3691007E-002  0.5389019E+02  0.7546771E-02  0.1281867E+00
        -11   -1    0    0    0    0  0.00000000000E+00  0.00000000000E+00  0.45600000000E+02  0.45600000000E+02  0.00000000000E+00 0.  1.
         11   -1    0    0    0    0 -0.00000000000E+00 -0.00000000000E+00 -0.45600000000E+02  0.45600000000E+02  0.00000000000E+00 0. -1.
        -11    1    1    2    0    0 -0.14678736229E+01 -0.64025839884E+01  0.25138801405E+02  0.25982822610E+02  0.00000000000E+00 0.  1.
         11    1    1    2    0    0  0.75069259186E+00  0.36144993709E+01 -0.37126726985E+02  0.37309811065E+02  0.00000000000E+00 0. -1.
        -15    1    1    2    0    0 -0.94807125552E+01 -0.10322894557E+01 -0.21867566666E+01  0.99443031829E+01  0.17770000000E+01 0.  1.
         15    1    1    2    0    0  0.10197893586E+02  0.38203740732E+01  0.14174682247E+02  0.17963063142E+02  0.17770000000E+01 0. -1.
</event>
<event>
 6    1  0.3691007E-002  0.4340844E+02  0.7546771E-02  0.1329191E+00
        -11   -1    0    0    0    0  0.00000000000E+00  0.00000000000E+00  0.45600000000E+02  0.45600000000E+02  0.00000000000E+00 0.  1.
         11   -1    0    0    0    0 -0.00000000000E+00 -0.00000000000E+00 -0.45600000000E+02  0.45600000000E+02  0.00000000000E+00 0. -1.
        -11    1    1    2    0    0  0.29363285688E+00 -0.65783933225E+00  0.43676847811E+02  0.43682788459E+02  0.00000000000E+00 0.  1.
         11    1    1    2    0    0 -0.49412535750E+00 -0.82197286581E+00 -0.43137955144E+02  0.43148614963E+02  0.00000000000E+00 0. -1.
        -15    1    1    2    0    0 -0.69753263856E+00  0.87202590020E+00  0.30795410524E+00  0.21212132574E+01  0.17770000000E+01 0. -1.
         15    1    1    2    0    0  0.89802513918E+00  0.60778629787E+00 -0.84684677190E+00  0.22473833206E+01  0.17770000000E+01 0. -1.
</event>
<event>
 6    1  0.3691007E-002  0.4036299E+02  0.7546771E-02  0.1345922E+00
        -11   -1    0    0    0    0  0.00000000000E+00  0.00000000000E+00  0.45600000000E+02  0.45600000000E+02  0.00000000000E+00 0.  1.
         11   -1    0    0    0    0 -0.00000000000E+00 -0.00000000000E+00 -0.45600000000E+02  0.45600000000E+02  0.00000000000E+00 0. -1.
        -11    1    1    2    0    0 -0.68552195558E+00  0.85940784796E+00  0.40650939222E+02  0.40665801134E+02  0.00000000000E+00 0.  1.
         11    1    1    2    0    0 -0.23690051983E+00  0.22261254919E+01 -0.40064023682E+02  0.40126521780E+02  0.00000000000E+00 0. -1.
        -15    1    1    2    0    0  0.41223717537E+01  0.68519426489E+00  0.14570691111E+01  0.47690900024E+01  0.17770000000E+01 0.  1.
         15    1    1    2    0    0 -0.31999492783E+01 -0.37707276047E+01 -0.20439846514E+01  0.56385870843E+01  0.17770000000E+01 0. -1.
</event>
<event>
 6    1  0.3691007E-002  0.4311148E+02  0.7546771E-02  0.1330752E+00
        -11   -1    0    0    0    0  0.00000000000E+00  0.00000000000E+00  0.45600000000E+02  0.45600000000E+02  0.00000000000E+00 0.  1.
         11   -1    0    0    0    0 -0.00000000000E+00 -0.00000000000E+00 -0.45600000000E+02  0.45600000000E+02  0.00000000000E+00 0. -1.
        -11    1    1    2    0    0 -0.18043325790E+01 -0.23115232391E+01  0.43465377951E+02  0.43564180655E+02  0.00000000000E+00 0.  1.
         11    1    1    2    0    0  0.27283554077E+00  0.62450880685E+00 -0.42686954925E+02  0.42692394770E+02  0.00000000000E+00 0. -1.
        -15    1    1    2    0    0  0.99974433193E+00  0.15370617948E+01  0.60565643951E+00  0.26242325379E+01  0.17770000000E+01 0. -1.
         15    1    1    2    0    0  0.53175270631E+00  0.14995263738E+00 -0.13840794657E+01  0.23191920364E+01  0.17770000000E+01 0. -1.
</event>
<event>
 6    1  0.3691007E-002  0.4609960E+02  0.7546771E-02  0.1315675E+00
        -11   -1    0    0    0    0  0.00000000000E+00  0.00000000000E+00  0.45600000000E+02  0.45600000000E+02  0.00000000000E+00 0.  1.
         11   -1    0    0    0    0 -0.00000000000E+00 -0.00000000000E+00 -0.45600000000E+02  0.45600000000E+02  0.00000000000E+00 0. -1.
        -11    1    1    2    0    0 -0.11913000652E+01 -0.14171847494E+01  0.45062388810E+02  0.45100404585E+02  0.00000000000E+00 0.  1.
         11    1    1    2    0    0 -0.16348296540E+00  0.58213095571E+00 -0.27791819788E+02  0.27798396541E+02  0.00000000000E+00 0. -1.
        -15    1    1    2    0    0  0.70291329847E+00  0.15575288073E+01 -0.29792756308E+01  0.38670137542E+01  0.17770000000E+01 0.  1.
         15    1    1    2    0    0  0.65186973216E+00 -0.72247501366E+00 -0.14291293391E+02  0.14434185120E+02  0.17770000000E+01 0. -1.
</event>
<event>
 6    1  0.3691007E-002  0.4657104E+02  0.7546771E-02  0.1313416E+00
        -11   -1    0    0    0    0  0.00000000000E+00  0.00000000000E+00  0.45600000000E+02  0.45600000000E+02  0.00000000000E+00 0. -1.
         11   -1    0    0    0    0 -0.00000000000E+00 -0.00000000000E+00 -0.45600000000E+02  0.45600000000E+02  0.00000000000E+00 0.  1.
        -11    1    1    2    0    0  0.15574077609E+01 -0.79094091487E+01  0.43894873076E+02  0.44628960937E+02  0.00000000000E+00 0. -1.
         11    1    1    2    0    0 -0.56001737349E+00  0.84759774920E+00 -0.22935697634E+02  0.22958185193E+02  0.00000000000E+00 0.  1.
        -15    1    1    2    0    0  0.51473394151E+00  0.78226192665E+01 -0.13005794998E+02  0.15289432813E+02  0.17770000000E+01 0.  1.
         15    1    1    2    0    0 -0.15121243290E+01 -0.76080786702E+00 -0.79533804440E+01  0.83234210565E+01  0.17770000000E+01 0.  1.
</event>
<event>
 6    1  0.3691007E-002  0.4582499E+02  0.7546771E-02  0.1317005E+00
        -11   -1    0    0    0    0  0.00000000000E+00  0.00000000000E+00  0.45600000000E+02  0.45600000000E+02  0.00000000000E+00 0. -1.
         11   -1    0    0    0    0 -0.00000000000E+00 -0.00000000000E+00 -0.45600000000E+02  0.45600000000E+02  0.00000000000E+00 0.  1.
        -11    1    1    2    0    0 -0.26498866009E+00  0.63183923636E+00  0.14315566249E+02  0.14331953001E+02  0.00000000000E+00 0. -1.
         11    1    1    2    0    0 -0.85382608240E+00 -0.22818998092E+00 -0.45366403154E+02  0.45375011017E+02  0.00000000000E+00 0.  1.
        -15    1    1    2    0    0  0.16943972893E+01  0.83459399669E+00  0.22666219600E+02  0.22814091462E+02  0.17770000000E+01 0.  1.
         15    1    1    2    0    0 -0.57558254685E+00 -0.12382432521E+01  0.83846173055E+01  0.86789445199E+01  0.17770000000E+01 0. -1.
</event>
<event>
 6    1  0.3691007E-002  0.4637842E+02  0.7546771E-02  0.1314335E+00
        -11   -1    0    0    0    0  0.00000000000E+00  0.00000000000E+00  0.45600000000E+02  0.45600000000E+02  0.00000000000E+00 0. -1.
         11   -1    0    0    0    0 -0.00000000000E+00 -0.00000000000E+00 -0.45600000000E+02  0.45600000000E+02  0.00000000000E+00 0. -1.
        -11    1    1    2    0    0 -0.82604944848E+00 -0.12813797738E+01  0.44795640604E+02  0.44821576378E+02  0.00000000000E+00 0. -1.
         11    1    1    2    0    0  0.58341639433E+00 -0.39424980465E+00 -0.28446886894E+02  0.28455600179E+02  0.00000000000E+00 0. -1.
        -15    1    1    2    0    0 -0.20497502018E+01 -0.11374992805E+01 -0.97611359683E+01  0.10194747907E+02  0.17770000000E+01 0.  1.
         15    1    1    2    0    0  0.22923832560E+01  0.28131288590E+01 -0.65876177422E+01  0.77280755358E+01  0.17770000000E+01 0.  1.
</event>
<event>
 6    1  0.3691007E-002  0.4670294E+02  0.7546771E-02  0.1312790E+00
        -11   -1    0    0    0    0  0.00000000000E+00  0.00000000000E+00  0.45600000000E+02  0.45600000000E+02  0.00000000000E+00 0. -1.
         11   -1    0    0    0    0 -0.00000000000E+00 -0.00000000000E+00 -0.45600000000E+02  0.45600000000E+02  0.00000000000E+00 0.  1.
        -11    1    1    2    0    0 -0.22291106165E+00  0.15015423061E+01  0.37121172581E+02  0.37152197411E+02  0.00000000000E+00 0. -1.
         11    1    1    2    0    0 -0.16110520228E+01  0.15548486924E+01 -0.44440698439E+02  0.44497064182E+02  0.00000000000E+00 0.  1.
        -15    1    1    2    0    0  0.14588080380E+01 -0.24633232723E+01  0.20466625334E+01  0.39424153714E+01  0.17770000000E+01 0.  1.
         15    1    1    2    0    0  0.37515504650E+00 -0.59306772623E+00  0.52728633245E+01  0.56083230360E+01  0.17770000000E+01 0.  1.
</event>
<event>
 6    1  0.3691007E-002  0.4960647E+02  0.7546771E-02  0.1299576E+00
        -11   -1    0    0    0    0  0.00000000000E+00  0.00000000000E+00  0.45600000000E+02  0.45600000000E+02  0.00000000000E+00 0. -1.
         11   -1    0    0    0    0 -0.00000000000E+00 -0.00000000000E+00 -0.45600000000E+02  0.45600000000E+02  0.00000000000E+00 0.  1.
        -11    1    1    2    0    0 -0.75672110081E+01 -0.48790586419E+00  0.25066380801E+02  0.26188245093E+02  0.00000000000E+00 0. -1.
         11    1    1    2    0    0  0.59595837046E+00 -0.52370334827E+01 -0.41258208606E+02  0.41593526701E+02  0.00000000000E+00 0.  1.
        -15    1    1    2    0    0 -0.34177241090E+01 -0.29780932368E-01  0.80074483362E+01  0.88858698418E+01  0.17770000000E+01 0. -1.
         15    1    1    2    0    0  0.10388976747E+02  0.57547202793E+01  0.81843794689E+01  0.14532358364E+02  0.17770000000E+01 0.  1.
</event>
<event>
 6    1  0.3691007E-002  0.4006472E+02  0.7546771E-02  0.1347652E+00
        -11   -1    0    0    0    0  0.00000000000E+00  0.00000000000E+00  0.45600000000E+02  0.45600000000E+02  0.00000000000E+00 0.  1.
         11   -1    0    0    0    0 -0.00000000000E+00 -0.00000000000E+00 -0.45600000000E+02  0.45600000000E+02  0.00000000000E+00 0.  1.
        -11    1    1    2    0    0  0.61093006382E+01 -0.13697294773E+02 -0.56420733747E+01  0.16024120267E+02  0.00000000000E+00 0.  1.
         11    1    1    2    0    0 -0.83721088216E+00  0.16323489181E+02 -0.29203844927E+02  0.33466726455E+02  0.00000000000E+00 0.  1.
        -15    1    1    2    0    0  0.59006719241E+00 -0.76666215049E+01  0.23142733791E+01  0.82242844591E+01  0.17770000000E+01 0. -1.
         15    1    1    2    0    0 -0.58621569484E+01  0.50404270971E+01  0.32531644923E+02  0.33484868818E+02  0.17770000000E+01 0.  1.
</event>
<event>
 6    1  0.3691007E-002  0.4804673E+02  0.7546771E-02  0.1306541E+00
        -11   -1    0    0    0    0  0.00000000000E+00  0.00000000000E+00  0.45600000000E+02  0.45600000000E+02  0.00000000000E+00 0.  1.
         11   -1    0    0    0    0 -0.00000000000E+00 -0.00000000000E+00 -0.45600000000E+02  0.45600000000E+02  0.00000000000E+00 0. -1.
        -11    1    1    2    0    0  0.18885419463E+01 -0.16495549765E+01  0.43080361182E+02  0.43153274984E+02  0.00000000000E+00 0.  1.
         11    1    1    2    0    0  0.55155808462E+00  0.29716124442E+00 -0.36956415183E+02  0.36961725397E+02  0.00000000000E+00 0. -1.
        -15    1    1    2    0    0 -0.45690088419E+01  0.22764053615E+01 -0.14909538815E+01  0.56070077264E+01  0.17770000000E+01 0. -1.
         15    1    1    2    0    0  0.21289088110E+01 -0.92401162938E+00 -0.46329921172E+01  0.54779918926E+01  0.17770000000E+01 0. -1.
</event>
<event>
 6    1  0.3691007E-002  0.4682541E+02  0.7546771E-02  0.1312210E+00
        -11   -1    0    0    0    0  0.00000000000E+00  0.00000000000E+00  0.45600000000E+02  0.45600000000E+02  0.00000000000E+00 0. -1.
         11   -1    0    0    0    0 -0.00000000000E+00 -0.00000000000E+00 -0.45600000000E+02  0.45600000000E+02  0.00000000000E+00 0.  1.
        -11    1    1    2    0    0  0.22907249639E+01 -0.24669426561E+01  0.44246706944E+02  0.44374590729E+02  0.00000000000E+00 0. -1.
         11    1    1    2    0    0 -0.92761202608E-02  0.13331740657E+01 -0.21737862469E+02  0.21778707580E+02  0.00000000000E+00 0.  1.
        -15    1    1    2    0    0 -0.74396479039E+00 -0.14719190769E+01 -0.21142930634E+02  0.21281477255E+02  0.17770000000E+01 0.  1.
         15    1    1    2    0    0 -0.15374840532E+01  0.26056876672E+01 -0.13659138413E+01  0.37652244362E+01  0.17770000000E+01 0.  1.
</event>
<event>
 6    1  0.3691007E-002  0.4225938E+02  0.7546771E-02  0.1335312E+00
        -11   -1    0    0    0    0  0.00000000000E+00  0.00000000000E+00  0.45600000000E+02  0.45600000000E+02  0.00000000000E+00 0. -1.
         11   -1    0    0    0    0 -0.00000000000E+00 -0.00000000000E+00 -0.45600000000E+02  0.45600000000E+02  0.00000000000E+00 0.  1.
        -11    1    1    2    0    0  0.13383787882E+00  0.92478533476E+00  0.42647033533E+02  0.42657269131E+02  0.00000000000E+00 0. -1.
         11    1    1    2    0    0 -0.93912278562E+00  0.93573920785E+00 -0.41868407807E+02  0.41889391638E+02  0.00000000000E+00 0.  1.
        -15    1    1    2    0    0  0.88756272632E+00 -0.35104620806E+01 -0.11607443013E+01  0.41971618918E+01  0.17770000000E+01 0. -1.
         15    1    1    2    0    0 -0.82277819525E-01  0.16499375380E+01  0.38211857545E+00  0.24561773398E+01  0.17770000000E+01 0. -1.
</event>
<event>
 6    1  0.3691007E-002  0.4835372E+02  0.7546771E-02  0.1305146E+00
        -11   -1    0    0    0    0  0.00000000000E+00  0.00000000000E+00  0.45600000000E+02  0.45600000000E+02  0.00000000000E+00 0. -1.
         11   -1    0    0    0    0 -0.00000000000E+00 -0.00000000000E+00 -0.45600000000E+02  0.45600000000E+02  0.00000000000E+00 0.  1.
        -11    1    1    2    0    0 -0.13339364724E+01  0.15041735723E+01  0.42799087134E+02  0.42846280867E+02  0.00000000000E+00 0. -1.
         11    1    1    2    0    0  0.11795571166E+01  0.10291802011E+00 -0.34126169943E+02  0.34146704410E+02  0.00000000000E+00 0.  1.
        -15    1    1    2    0    0 -0.25988574585E+01  0.87225960844E+00  0.12257850536E+01  0.34892943286E+01  0.17770000000E+01 0.  1.
         15    1    1    2    0    0  0.27532368143E+01 -0.24793512009E+01 -0.98987022446E+01  0.10717720395E+02  0.17770000000E+01 0.  1.
</event>
<event>
 6    1  0.3691007E-002  0.4757175E+02  0.7546771E-02  0.1308722E+00
        -11   -1    0    0    0    0  0.00000000000E+00  0.00000000000E+00  0.45600000000E+02  0.45600000000E+02  0.00000000000E+00 0. -1.
         11   -1    0    0    0    0 -0.00000000000E+00 -0.00000000000E+00 -0.45600000000E+02  0.45600000000E+02  0.00000000000E+00 0.  1.
        -11    1    1    2    0    0 -0.13322177205E+01 -0.57204336777E+00  0.42089966879E+02  0.42114930245E+02  0.00000000000E+00 0. -1.
         11    1    1    2    0    0  0.30096232126E-01 -0.64507949663E+00 -0.43623467309E+02  0.43628246967E+02  0.00000000000E+00 0.  1.
        -15    1    1    2    0    0  0.71089539364E-01  0.17009452589E+01 -0.42817618146E+00  0.24978655566E+01  0.17770000000E+01 0.  1.
         15    1    1    2    0    0  0.12310319490E+01 -0.48382239448E+00  0.19616766111E+01  0.29589572311E+01  0.17770000000E+01 0.  1.
</event>
<event>
 6    1  0.3691007E-002  0.4620543E+02  0.7546771E-02  0.1315165E+00
        -11   -1    0    0    0    0  0.00000000000E+00  0.00000000000E+00  0.45600000000E+02  0.45600000000E+02  0.00000000000E+00 0. -1.
         11   -1    0    0    0    0 -0.00000000000E+00 -0.00000000000E+00 -0.45600000000E+02  0.45600000000E+02  0.00000000000E+00 0. -1.
        -11    1    1    2    0    0 -0.47795731946E+00 -0.29036533634E+00  0.37244936452E+02  0.37249134843E+02  0.00000000000E+00 0. -1.
         11    1    1    2    0    0  0.24947417820E+00 -0.10943777614E+01 -0.44980567514E+02  0.44994570272E+02  0.00000000000E+00 0. -1.
        -15    1    1    2    0    0  0.11478677018E+01  0.20648333078E+00  0.29373265505E+01  0.36257208788E+01  0.17770000000E+01 0.  1.
         15    1    1    2    0    0 -0.91938456053E+00  0.11782597669E+01  0.47983045115E+01  0.53305740060E+01  0.17770000000E+01 0. -1.
</event>
<event>
 6    1  0.3691007E-002  0.4727326E+02  0.7546771E-02  0.1310108E+00
        -11   -1    0    0    0    0  0.00000000000E+00  0.00000000000E+00  0.45600000000E+02  0.45600000000E+02  0.00000000000E+00 0. -1.
         11   -1    0    0    0    0 -0.00000000000E+00 -0.00000000000E+00 -0.45600000000E+02  0.45600000000E+02  0.00000000000E+00 0.  1.
        -11    1    1    2    0    0  0.39839774926E+00 -0.40613843939E+00  0.38631822351E+02  0.38636011276E+02  0.00000000000E+00 0. -1.
         11    1    1    2    0    0 -0.19820427804E+01 -0.44238007154E+00 -0.43879771370E+02  0.43926740480E+02  0.00000000000E+00 0.  1.
        -15    1    1    2    0    0  0.45323598011E+00 -0.10471437948E+01  0.54013808835E+01  0.57995325182E+01  0.17770000000E+01 0. -1.
         15    1    1    2    0    0  0.11304090511E+01  0.18956623057E+01 -0.15343186378E+00  0.28377157252E+01  0.17770000000E+01 0. -1.
</event>
<event>
 6    1  0.3691007E-002  0.2367283E+02  0.7546771E-02  0.1483267E+00
        -11   -1    0    0    0    0  0.00000000000E+00  0.00000000000E+00  0.45600000000E+02  0.45600000000E+02  0.00000000000E+00 0.  1.
         11   -1    0    0    0    0 -0.00000000000E+00 -0.00000000000E+00 -0.45600000000E+02  0.45600000000E+02  0.00000000000E+00 0.  1.
        -11    1    1    2    0    0  0.11285929352E+01 -0.29169091380E+00  0.25557534320E+02  0.25584103778E+02  0.00000000000E+00 0.  1.
         11    1    1    2    0    0 -0.19917873493E+01  0.12963922143E+01 -0.29894490172E+02  0.29988804449E+02  0.00000000000E+00 0.  1.
        -15    1    1    2    0    0 -0.71659064972E+01 -0.17465248994E+01  0.18072796793E+02  0.19600619328E+02  0.17770000000E+01 0. -1.
         15    1    1    2    0    0  0.80291009113E+01  0.74182359891E+00 -0.13735840940E+02  0.16026472445E+02  0.17770000000E+01 0.  1.
</event>
<event>
 6    1  0.3691007E-002  0.5081407E+02  0.7546771E-02  0.1294382E+00
        -11   -1    0    0    0    0  0.00000000000E+00  0.00000000000E+00  0.45600000000E+02  0.45600000000E+02  0.00000000000E+00 0. -1.
         11   -1    0    0    0    0 -0.00000000000E+00 -0.00000000000E+00 -0.45600000000E+02  0.45600000000E+02  0.00000000000E+00 0. -1.
        -11    1    1    2    0    0  0.24755285541E+01 -0.70723887855E+01  0.39684717693E+02  0.40385934967E+02  0.00000000000E+00 0. -1.
         11    1    1    2    0    0  0.18086356264E+00 -0.58346710841E+00 -0.34170342937E+02  0.34175802579E+02  0.00000000000E+00 0. -1.
        -15    1    1    2    0    0 -0.34906712678E+01  0.25748246976E+01  0.36746341091E+01  0.59561038405E+01  0.17770000000E+01 0. -1.
         15    1    1    2    0    0  0.83427915102E+00  0.50810311963E+01 -0.91890088652E+01  0.10682158613E+02  0.17770000000E+01 0.  1.
</event>
<event>
 6    1  0.3691007E-002  0.4812953E+02  0.7546771E-02  0.1306163E+00
        -11   -1    0    0    0    0  0.00000000000E+00  0.00000000000E+00  0.45600000000E+02  0.45600000000E+02  0.00000000000E+00 0.  1.
         11   -1    0    0    0    0 -0.00000000000E+00 -0.00000000000E+00 -0.45600000000E+02  0.45600000000E+02  0.00000000000E+00 0.  1.
        -11    1    1    2    0    0 -0.74957839381E+00 -0.22714998334E+00  0.43063346473E+02  0.43070468704E+02  0.00000000000E+00 0.  1.
         11    1    1    2    0    0  0.52865645953E+01 -0.17687431068E+01 -0.32462226967E+02  0.32937401189E+02  0.00000000000E+00 0.  1.
        -15    1    1    2    0    0 -0.49658237319E+01  0.44045416393E+01 -0.99612571693E+01  0.12101395200E+02  0.17770000000E+01 0. -1.
         15    1    1    2    0    0  0.42883753039E+00 -0.24086485492E+01 -0.63986233694E+00  0.30907349080E+01  0.17770000000E+01 0. -1.
</event>
<event>
 6    1  0.3691007E-002  0.4875966E+02  0.7546771E-02  0.1303320E+00
        -11   -1    0    0    0    0  0.00000000000E+00  0.00000000000E+00  0.45600000000E+02  0.45600000000E+02  0.00000000000E+00 0. -1.
         11   -1    0    0    0    0 -0.00000000000E+00 -0.00000000000E+00 -0.45600000000E+02  0.45600000000E+02  0.00000000000E+00 0.  1.
        -11    1    1    2    0    0 -0.15328476821E+00 -0.35975928434E+01  0.42287302652E+02  0.42440336192E+02  0.00000000000E+00 0. -1.
         11    1    1    2    0    0  0.57989513859E+00 -0.63542651060E-01 -0.39404742240E+02  0.39409060215E+02  0.00000000000E+00 0.  1.
        -15    1    1    2    0    0 -0.20736414950E+00  0.44368748494E+01  0.11061220870E+01  0.49102029887E+01  0.17770000000E+01 0. -1.
         15    1    1    2    0    0 -0.21924622089E+00 -0.77573935489E+00 -0.39886824988E+01  0.44404006045E+01  0.17770000000E+01 0. -1.
</event>
<event>
 6    1  0.3691007E-002  0.4674332E+02  0.7546771E-02  0.1312598E+00
        -11   -1    0    0    0    0  0.00000000000E+00  0.00000000000E+00  0.45600000000E+02  0.45600000000E+02  0.00000000000E+00 0.  1.
         11   -1    0    0    0    0 -0.00000000000E+00 -0.00000000000E+00 -0.45600000000E+02  0.45600000000E+02  0.00000000000E+00 0. -1.
        -11    1    1    2    0    0  0.31018048697E-01  0.10231125614E+01  0.44444892282E+02  0.44456677467E+02  0.00000000000E+00 0.  1.
         11    1    1    2    0    0  0.58939574804E+00  0.67506740376E+00 -0.35686683746E+02  0.35697934115E+02  0.00000000000E+00 0. -1.
        -15    1    1    2    0    0  0.21082848341E+01 -0.20650655186E+01 -0.47629848240E+01  0.58781896849E+01  0.17770000000E+01 0.  1.
         15    1    1    2    0    0 -0.27286986308E+01  0.36688555350E+00 -0.39952237127E+01  0.51671987325E+01  0.17770000000E+01 0.  1.
</event>
<event>
 6    1  0.3691007E-002  0.4885770E+02  0.7546771E-02  0.1302882E+00
        -11   -1    0    0    0    0  0.00000000000E+00  0.00000000000E+00  0.45600000000E+02  0.45600000000E+02  0.00000000000E+00 0.  1.
         11   -1    0    0    0    0 -0.00000000000E+00 -0.00000000000E+00 -0.45600000000E+02  0.45600000000E+02  0.00000000000E+00 0. -1.
        -11    1    1    2    0    0 -0.15102122861E+01  0.84700778665E+00  0.42306878953E+02  0.42342297648E+02  0.00000000000E+00 0.  1.
         11    1    1    2    0    0 -0.26842744030E+01 -0.43957407074E+01 -0.29314757813E+02  0.29763784891E+02  0.00000000000E+00 0. -1.
        -15    1    1    2    0    0  0.69075415063E+01 -0.20065152835E+01 -0.83365252874E+01  0.11153278267E+02  0.17770000000E+01 0.  1.
         15    1    1    2    0    0 -0.27130548172E+01  0.55552482042E+01 -0.46555958531E+01  0.79406391933E+01  0.17770000000E+01 0. -1.
</event>
<event>
 6    1  0.3691007E-002  0.4614737E+02  0.7546771E-02  0.1315444E+00
        -11   -1    0    0    0    0  0.00000000000E+00  0.00000000000E+00  0.45600000000E+02  0.45600000000E+02  0.00000000000E+00 0.  1.
         11   -1    0    0    0    0 -0.00000000000E+00 -0.00000000000E+00 -0.45600000000E+02  0.45600000000E+02  0.00000000000E+00 0.  1.
        -11    1    1    2    0    0 -0.25139701350E+00 -0.11509924041E+01  0.21299018162E+02  0.21331576563E+02  0.00000000000E+00 0.  1.
         11    1    1    2    0    0 -0.16946131400E+01  0.11933062351E+01 -0.45004935553E+02  0.45052634968E+02  0.00000000000E+00 0.  1.
        -15    1    1    2    0    0 -0.13450555757E+01 -0.18175400176E+01  0.63169399135E+01  0.69407553687E+01  0.17770000000E+01 0. -1.
         15    1    1    2    0    0  0.32910657292E+01  0.17752261866E+01  0.17388977477E+02  0.17875033100E+02  0.17770000000E+01 0.  1.
</event>
<event>
 6    1  0.3691007E-002  0.4644684E+02  0.7546771E-02  0.1314008E+00
        -11   -1    0    0    0    0  0.00000000000E+00  0.00000000000E+00  0.45600000000E+02  0.45600000000E+02  0.00000000000E+00 0. -1.
         11   -1    0    0    0    0 -0.00000000000E+00 -0.00000000000E+00 -0.45600000000E+02  0.45600000000E+02  0.00000000000E+00 0. -1.
        -11    1    1    2    0    0 -0.12996415357E+01 -0.17547833637E+01  0.44699852406E+02  0.44753157853E+02  0.00000000000E+00 0. -1.
         11    1    1    2    0    0 -0.13974520686E+01  0.65713374695E+00 -0.12493220601E+02  0.12588298456E+02  0.00000000000E+00 0. -1.
        -15    1    1    2    0    0  0.24989536192E-01 -0.32366082390E+01 -0.22068589544E+02  0.22375357669E+02  0.17770000000E+01 0. -1.
         15    1    1    2    0    0  0.26721040680E+01  0.43342578558E+01 -0.10138042261E+02  0.11483186021E+02  0.17770000000E+01 0. -1.
</event>
<event>
 6    1  0.3691007E-002  0.4924173E+02  0.7546771E-02  0.1301178E+00
        -11   -1    0    0    0    0  0.00000000000E+00  0.00000000000E+00  0.45600000000E+02  0.45600000000E+02  0.00000000000E+00 0. -1.
         11   -1    0    0    0    0 -0.00000000000E+00 -0.00000000000E+00 -0.45600000000E+02  0.45600000000E+02  0.00000000000E+00 0. -1.
        -11    1    1    2    0    0 -0.40409768151E+01  0.40340092136E+01  0.22456804243E+02  0.23171335325E+02  0.00000000000E+00 0. -1.
         11    1    1    2    0    0  0.50337064408E+01  0.16805186495E+00 -0.41654888444E+02  0.41958267043E+02  0.00000000000E+00 0. -1.
        -15    1    1    2    0    0 -0.66636294999E+01 -0.52128000690E+01  0.36302858322E+01  0.93762437518E+01  0.17770000000E+01 0.  1.
         15    1    1    2    0    0  0.56708998742E+01  0.10107389904E+01  0.15567798370E+02  0.16694153880E+02  0.17770000000E+01 0. -1.
</event>
<event>
 6    1  0.3691007E-002  0.4770159E+02  0.7546771E-02  0.1308123E+00
        -11   -1    0    0    0    0  0.00000000000E+00  0.00000000000E+00  0.45600000000E+02  0.45600000000E+02  0.00000000000E+00 0. -1.
         11   -1    0    0    0    0 -0.00000000000E+00 -0.00000000000E+00 -0.45600000000E+02  0.45600000000E+02  0.00000000000E+00 0.  1.
        -11    1    1    2    0    0 -0.13519939466E+01 -0.23229953687E+00  0.43476768716E+02  0.43498405358E+02  0.00000000000E+00 0. -1.
         11    1    1    2    0    0 -0.16417434838E+00 -0.50283395780E+00 -0.37104928787E+02  0.37108698920E+02  0.00000000000E+00 0.  1.
        -15    1    1    2    0    0 -0.26151130872E+01 -0.44263322238E+00 -0.46392647091E+01  0.56316291310E+01  0.17770000000E+01 0. -1.
         15    1    1    2    0    0  0.41312813822E+01  0.11777667171E+01 -0.17325752195E+01  0.49612665913E+01  0.17770000000E+01 0. -1.
</event>
<event>
 6    1  0.3691007E-002  0.4787977E+02  0.7546771E-02  0.1307304E+00
        -11   -1    0    0    0    0  0.00000000000E+00  0.00000000000E+00  0.45600000000E+02  0.45600000000E+02  0.00000000000E+00 0.  1.
         11   -1    0    0    0    0 -0.00000000000E+00 -0.00000000000E+00 -0.45600000000E+02  0.45600000000E+02  0.00000000000E+00 0.  1.
        -11    1    1    2    0    0  0.27020877112E+01  0.14524438169E+01  0.43211475929E+02  0.43320232259E+02  0.00000000000E+00 0.  1.
         11    1    1    2    0    0  0.51395743903E+01 -0.70148387963E+00 -0.35327840258E+02  0.35706632463E+02  0.00000000000E+00 0.  1.
        -15    1    1    2    0    0 -0.44176856486E+01 -0.58764810333E+00 -0.21425917557E+01  0.52544938115E+01  0.17770000000E+01 0. -1.
         15    1    1    2    0    0 -0.34239764529E+01 -0.16331183396E+00 -0.57410439156E+01  0.69186414668E+01  0.17770000000E+01 0.  1.
</event>
<event>
 6    1  0.3691007E-002  0.4690028E+02  0.7546771E-02  0.1311857E+00
        -11   -1    0    0    0    0  0.00000000000E+00  0.00000000000E+00  0.45600000000E+02  0.45600000000E+02  0.00000000000E+00 0. -1.
         11   -1    0    0    0    0 -0.00000000000E+00 -0.00000000000E+00 -0.45600000000E+02  0.45600000000E+02  0.00000000000E+00 0.  1.
        -11    1    1    2    0    0 -0.12751104881E+01 -0.35176676475E+00  0.30181338137E+02  0.30210309802E+02  0.00000000000E+00 0. -1.
         11    1    1    2    0    0  0.14575987142E+01 -0.70739180989E+00 -0.44270087205E+02  0.44299724811E+02  0.00000000000E+00 0.  1.
        -15    1    1    2    0    0 -0.25071650469E+01 -0.23112452342E+01  0.35024093756E+01  0.52011855897E+01  0.17770000000E+01 0.  1.
         15    1    1    2    0    0  0.23246768208E+01  0.33704038088E+01  0.10586339693E+02  0.11488779798E+02  0.17770000000E+01 0. -1.
</event>
<event>
 6    1  0.3691007E-002  0.4254202E+02  0.7546771E-02  0.1333785E+00
        -11   -1    0    0    0    0  0.00000000000E+00  0.00000000000E+00  0.45600000000E+02  0.45600000000E+02  0.00000000000E+00 0. -1.
         11   -1    0    0    0    0 -0.00000000000E+00 -0.00000000000E+00 -0.45600000000E+02  0.45600000000E+02  0.00000000000E+00 0.  1.
        -11    1    1    2    0    0 -0.56510477043E+00  0.41534098810E+00  0.42394620054E+02  0.42400420529E+02  0.00000000000E+00 0. -1.
         11    1    1    2    0    0 -0.17166322402E+00 -0.15739093350E+01 -0.42665764669E+02  0.42695130093E+02  0.00000000000E+00 0.  1.
        -15    1    1    2    0    0  0.94466607766E+00 -0.11986524551E+01  0.16242752169E+01  0.28504667489E+01  0.17770000000E+01 0.  1.
         15    1    1    2    0    0 -0.20789808321E+00  0.23572208020E+01 -0.13531306016E+01  0.32539826286E+01  0.17770000000E+01 0.  1.
</event>
<event>
 6    1  0.3691007E-002  0.4129059E+02  0.7546771E-02  0.1340650E+00
        -11   -1    0    0    0    0  0.00000000000E+00  0.00000000000E+00  0.45600000000E+02  0.45600000000E+02  0.00000000000E+00 0.  1.
         11   -1    0    0    0    0 -0.00000000000E+00 -0.00000000000E+00 -0.45600000000E+02  0.45600000000E+02  0.00000000000E+00 0.  1.
        -11    1    1    2    0    0  0.19656498229E+01 -0.50296365389E+01  0.39787992251E+02  0.40152775126E+02  0.00000000000E+00 0.  1.
         11    1    1    2    0    0  0.74067757788E+00  0.93810510915E+00 -0.42605168407E+02  0.42621931202E+02  0.00000000000E+00 0.  1.
        -15    1    1    2    0    0  0.38125231769E-01  0.26729031579E+01  0.35507204287E+01  0.47865655106E+01  0.17770000000E+01 0.  1.
         15    1    1    2    0    0 -0.27444526326E+01  0.14186282719E+01 -0.73354427353E+00  0.36387281607E+01  0.17770000000E+01 0. -1.
</event>
<event>
 6    1  0.3691007E-002  0.4263632E+02  0.7546771E-02  0.1333279E+00
        -11   -1    0    0    0    0  0.00000000000E+00  0.00000000000E+00  0.45600000000E+02  0.45600000000E+02  0.00000000000E+00 0. -1.
         11   -1    0    0    0    0 -0.00000000000E+00 -0.00000000000E+00 -0.45600000000E+02  0.45600000000E+02  0.00000000000E+00 0. -1.
        -11    1    1    2    0    0  0.55995654832E+00  0.57809857643E+00  0.42422840367E+02  0.42430474120E+02  0.00000000000E+00 0. -1.
         11    1    1    2    0    0  0.20593668639E+00  0.10451007476E+01 -0.42848871744E+02  0.42862109785E+02  0.00000000000E+00 0. -1.
        -15    1    1    2    0    0  0.13557454360E+01 -0.13149794937E+00  0.13699528818E+01  0.26248499569E+01  0.17770000000E+01 0. -1.
         15    1    1    2    0    0 -0.21216386707E+01 -0.14917013746E+01 -0.94392150424E+00  0.32825661374E+01  0.17770000000E+01 0. -1.
</event>
<event>
 6    1  0.3691007E-002  0.4744241E+02  0.7546771E-02  0.1309322E+00
        -11   -1    0    0    0    0  0.00000000000E+00  0.00000000000E+00  0.45600000000E+02  0.45600000000E+02  0.00000000000E+00 0.  1.
         11   -1    0    0    0    0 -0.00000000000E+00 -0.00000000000E+00 -0.45600000000E+02  0.45600000000E+02  0.00000000000E+00 0.  1.
        -11    1    1    2    0    0  0.16198013747E+01  0.11799441834E+01  0.41620293455E+02  0.41668511517E+02  0.00000000000E+00 0.  1.
         11    1    1    2    0    0  0.60303356882E+00 -0.76633010267E+00 -0.43746724341E+02  0.43757591363E+02  0.00000000000E+00 0.  1.
        -15    1    1    2    0    0 -0.94369680255E+00 -0.14620837022E+01  0.22350639667E+01  0.33438738527E+01  0.17770000000E+01 0. -1.
         15    1    1    2    0    0 -0.12791381409E+01  0.10484696215E+01 -0.10863308033E+00  0.24300232668E+01  0.17770000000E+01 0. -1.
</event>
<event>
 6    1  0.3691007E-002  0.4703497E+02  0.7546771E-02  0.1311223E+00
        -11   -1    0    0    0    0  0.00000000000E+00  0.00000000000E+00  0.45600000000E+02  0.45600000000E+02  0.00000000000E+00 0.  1.
         11   -1    0    0    0    0 -0.00000000000E+00 -0.00000000000E+00 -0.45600000000E+02  0.45600000000E+02  0.00000000000E+00 0.  1.
        -11    1    1    2    0    0 -0.97060203662E+00  0.10729140038E+01  0.41223420214E+02  0.41248801036E+02  0.00000000000E+00 0.  1.
         11    1    1    2    0    0 -0.24987190082E+00  0.56161730779E+00 -0.44160756348E+02  0.44165034260E+02  0.00000000000E+00 0.  1.
        -15    1    1    2    0    0  0.59333676336E+00  0.37497000073E+00  0.23122482623E+00  0.19245375903E+01  0.17770000000E+01 0.  1.
         15    1    1    2    0    0  0.62713717409E+00 -0.20095013123E+01  0.27061113077E+01  0.38616271141E+01  0.17770000000E+01 0. -1.
</event>
<event>
 6    1  0.3691007E-002  0.4689629E+02  0.7546771E-02  0.1311876E+00
        -11   -1    0    0    0    0  0.00000000000E+00  0.00000000000E+00  0.45600000000E+02  0.45600000000E+02  0.00000000000E+00 0. -1.
         11   -1    0    0    0    0 -0.00000000000E+00 -0.00000000000E+00 -0.45600000000E+02  0.45600000000E+02  0.00000000000E+00 0.  1.
        -11    1    1    2    0    0 -0.11827340337E+00  0.49618869555E+00  0.34953204353E+02  0.34956926157E+02  0.00000000000E+00 0. -1.
         11    1    1    2    0    0  0.11036540536E+01  0.35961489384E+00 -0.44288500264E+02  0.44303708995E+02  0.00000000000E+00 0.  1.
        -15    1    1    2    0    0 -0.10736278772E+01 -0.30556704675E+01  0.79979451221E+01  0.88099179338E+01  0.17770000000E+01 0.  1.
         15    1    1    2    0    0  0.88247226956E-01  0.21998668781E+01  0.13373507888E+01  0.31294469139E+01  0.17770000000E+01 0.  1.
</event>
<event>
 6    1  0.3691007E-002  0.4581112E+02  0.7546771E-02  0.1317072E+00
        -11   -1    0    0    0    0  0.00000000000E+00  0.00000000000E+00  0.45600000000E+02  0.45600000000E+02  0.00000000000E+00 0. -1.
         11   -1    0    0    0    0 -0.00000000000E+00 -0.00000000000E+00 -0.45600000000E+02  0.45600000000E+02  0.00000000000E+00 0. -1.
        -11    1    1    2    0    0  0.16963808524E+01 -0.12296287001E+00  0.45357001788E+02  0.45388880125E+02  0.00000000000E+00 0. -1.
         11    1    1    2    0    0 -0.15812743949E+00  0.10998492608E+01 -0.21892800289E+02  0.21920980297E+02  0.00000000000E+00 0. -1.
        -15    1    1    2    0    0 -0.26599453762E+00 -0.97133806523E+00 -0.73544491384E+01  0.76328174262E+01  0.17770000000E+01 0.  1.
         15    1    1    2    0    0 -0.12722588752E+01 -0.55483255102E-02 -0.16109752360E+02  0.16257322152E+02  0.17770000000E+01 0. -1.
</event>
<event>
 6    1  0.3691007E-002  0.4743066E+02  0.7546771E-02  0.1309376E+00
        -11   -1    0    0    0    0  0.00000000000E+00  0.00000000000E+00  0.45600000000E+02  0.45600000000E+02  0.00000000000E+00 0. -1.
         11   -1    0    0    0    0 -0.00000000000E+00 -0.00000000000E+00 -0.45600000000E+02  0.45600000000E+02  0.00000000000E+00 0. -1.
        -11    1    1    2    0    0  0.82015185906E+00 -0.12740186780E+00  0.43761471243E+02  0.43769341389E+02  0.00000000000E+00 0. -1.
         11    1    1    2    0    0 -0.11111729370E+01 -0.13754364815E+01 -0.41107342387E+02  0.41145353673E+02  0.00000000000E+00 0. -1.
        -15    1    1    2    0    0  0.12892773681E+01  0.24318621218E+01 -0.23339643654E+01  0.40225996781E+01  0.17770000000E+01 0. -1.
         15    1    1    2    0    0 -0.99825629015E+00 -0.92902377247E+00 -0.32016449045E+00  0.22627052595E+01  0.17770000000E+01 0. -1.
</event>
<event>
 6    1  0.3691007E-002  0.4969876E+02  0.7546771E-02  0.1299173E+00
        -11   -1    0    0    0    0  0.00000000000E+00  0.00000000000E+00  0.45600000000E+02  0.45600000000E+02  0.00000000000E+00 0.  1.
         11   -1    0    0    0    0 -0.00000000000E+00 -0.00000000000E+00 -0.45600000000E+02  0.45600000000E+02  0.00000000000E+00 0.  1.
        -11    1    1    2    0    0  0.27441102198E+00 -0.23367990020E+01  0.19017886422E+02  0.19162879088E+02  0.00000000000E+00 0.  1.
         11    1    1    2    0    0 -0.47259645698E+01 -0.38400707091E+01 -0.41052069109E+02  0.41501244106E+02  0.00000000000E+00 0.  1.
        -15    1    1    2    0    0  0.54350159350E+01  0.43323216214E+01 -0.10840333593E+01  0.72554301161E+01  0.17770000000E+01 0.  1.
         15    1    1    2    0    0 -0.98346238712E+00  0.18445480896E+01  0.23118216046E+02  0.23280446690E+02  0.17770000000E+01 0.  1.
</event>
<event>
 6    1  0.3691007E-002  0.4633473E+02  0.7546771E-02  0.1314544E+00
        -11   -1    0    0    0    0  0.00000000000E+00  0.00000000000E+00  0.45600000000E+02  0.45600000000E+02  0.00000000000E+00 0. -1.
         11   -1    0    0    0    0 -0.00000000000E+00 -0.00000000000E+00 -0.45600000000E+02  0.45600000000E+02  0.00000000000E+00 0.  1.
        -11    1    1    2    0    0 -0.10298628545E+01  0.81161437722E+00  0.37295146490E+02  0.37318189762E+02  0.00000000000E+00 0. -1.
         11    1    1    2    0    0 -0.64418772764E+00  0.84520174405E+00 -0.44852681193E+02  0.44865268907E+02  0.00000000000E+00 0.  1.
        -15    1    1    2    0    0  0.16386186340E+01 -0.12864001928E+00  0.27205381890E+01  0.36415211547E+01  0.17770000000E+01 0.  1.
         15    1    1    2    0    0  0.35431948200E-01 -0.15281761020E+01  0.48369965144E+01  0.53750201769E+01  0.17770000000E+01 0. -1.
</event>
<event>
 6    1  0.3691007E-002  0.4784212E+02  0.7546771E-02  0.1307477E+00
        -11   -1    0    0    0    0  0.00000000000E+00  0.00000000000E+00  0.45600000000E+02  0.45600000000E+02  0.00000000000E+00 0.  1.
         11   -1    0    0    0    0 -0.00000000000E+00 -0.00000000000E+00 -0.45600000000E+02  0.45600000000E+02  0.00000000000E+00 0. -1.
        -11    1    1    2    0    0 -0.82093215523E+00 -0.12860765373E+01  0.43331026209E+02  0.43357879962E+02  0.00000000000E+00 0.  1.
         11    1    1    2    0    0  0.22739260359E+01  0.10511893602E+01 -0.27716340905E+02  0.27829324316E+02  0.00000000000E+00 0. -1.
        -15    1    1    2    0    0 -0.13683466575E+01  0.18045838371E+01 -0.17015708745E+02  0.17257490215E+02  0.17770000000E+01 0. -1.
         15    1    1    2    0    0 -0.84647223075E-01 -0.15696966599E+01  0.14010234418E+01  0.27553055077E+01  0.17770000000E+01 0.  1.
</event>
<event>
 6    1  0.3691007E-002  0.4679411E+02  0.7546771E-02  0.1312358E+00
        -11   -1    0    0    0    0  0.00000000000E+00  0.00000000000E+00  0.45600000000E+02  0.45600000000E+02  0.00000000000E+00 0. -1.
         11   -1    0    0    0    0 -0.00000000000E+00 -0.00000000000E+00 -0.45600000000E+02  0.45600000000E+02  0.00000000000E+00 0. -1.
        -11    1    1    2    0    0  0.48692036697E+00  0.28998613932E+00  0.36559741710E+02  0.36564134029E+02  0.00000000000E+00 0. -1.
         11    1    1    2    0    0 -0.17394364690E+00  0.16524116851E+01 -0.44374791643E+02  0.44405887606E+02  0.00000000000E+00 0. -1.
        -15    1    1    2    0    0  0.12895275593E+01  0.59691173893E+00  0.57303151176E+01  0.61655028422E+01  0.17770000000E+01 0. -1.
         15    1    1    2    0    0 -0.16025042794E+01 -0.25393095634E+01  0.20847348155E+01  0.40644755227E+01  0.17770000000E+01 0.  1.
</event>
<event>
 6    1  0.3691007E-002  0.4867203E+02  0.7546771E-02  0.1303713E+00
        -11   -1    0    0    0    0  0.00000000000E+00  0.00000000000E+00  0.45600000000E+02  0.45600000000E+02  0.00000000000E+00 0.  1.
         11   -1    0    0    0    0 -0.00000000000E+00 -0.00000000000E+00 -0.45600000000E+02  0.45600000000E+02  0.00000000000E+00 0.  1.
        -11    1    1    2    0    0 -0.30409540835E+00  0.95852793344E+00  0.42516083669E+02  0.42527974562E+02  0.00000000000E+00 0.  1.
         11    1    1    2    0    0  0.27269024347E+00  0.44348452217E+00 -0.37677719114E+02  0.37681315743E+02  0.00000000000E+00 0.  1.
        -15    1    1    2    0    0  0.24619963323E+01  0.27272425020E+01 -0.41732386408E+01  0.58372020145E+01  0.17770000000E+01 0. -1.
         15    1    1    2    0    0 -0.24305911674E+01 -0.41292549576E+01 -0.66512591387E+00  0.51535076801E+01  0.17770000000E+01 0.  1.
</event>
<event>
 6    1  0.3691007E-002  0.4798671E+02  0.7546771E-02  0.1306815E+00
        -11   -1    0    0    0    0  0.00000000000E+00  0.00000000000E+00  0.45600000000E+02  0.45600000000E+02  0.00000000000E+00 0.  1.
         11   -1    0    0    0    0 -0.00000000000E+00 -0.00000000000E+00 -0.45600000000E+02  0.45600000000E+02  0.00000000000E+00 0.  1.
        -11    1    1    2    0    0  0.11136992306E+01 -0.23964032405E+01  0.43132414476E+02  0.43213287922E+02  0.00000000000E+00 0.  1.
         11    1    1    2    0    0 -0.34350990407E+01  0.38044030856E+01 -0.32301676308E+02  0.32705835574E+02  0.00000000000E+00 0.  1.
        -15    1    1    2    0    0  0.48024247716E+01 -0.30932014203E+01 -0.29641885220E+01  0.66764752158E+01  0.17770000000E+01 0. -1.
         15    1    1    2    0    0 -0.24810249615E+01  0.16852015752E+01 -0.78665496459E+01  0.86044012889E+01  0.17770000000E+01 0.  1.
</event>
<event>
 6    1  0.3691007E-002  0.4885899E+02  0.7546771E-02  0.1302876E+00
        -11   -1    0    0    0    0  0.00000000000E+00  0.00000000000E+00  0.45600000000E+02  0.45600000000E+02  0.00000000000E+00 0.  1.
         11   -1    0    0    0    0 -0.00000000000E+00 -0.00000000000E+00 -0.45600000000E+02  0.45600000000E+02  0.00000000000E+00 0.  1.
        -11    1    1    2    0    0  0.16932006466E+01 -0.23669295254E+00  0.42306476137E+02  0.42341007015E+02  0.00000000000E+00 0.  1.
         11    1    1    2    0    0  0.59224839623E+00  0.20001074035E+00 -0.40819611009E+02  0.40824397184E+02  0.00000000000E+00 0.  1.
        -15    1    1    2    0    0 -0.17700112573E+01  0.26629384244E+01  0.11964407386E+01  0.38488154468E+01  0.17770000000E+01 0. -1.
         15    1    1    2    0    0 -0.51543778557E+00 -0.26262562122E+01 -0.26833058659E+01  0.41857803541E+01  0.17770000000E+01 0.  1.
</event>
<event>
 6    1  0.3691007E-002  0.4699237E+02  0.7546771E-02  0.1311424E+00
        -11   -1    0    0    0    0  0.00000000000E+00  0.00000000000E+00  0.45600000000E+02  0.45600000000E+02  0.00000000000E+00 0.  1.
         11   -1    0    0    0    0 -0.00000000000E+00 -0.00000000000E+00 -0.45600000000E+02  0.45600000000E+02  0.00000000000E+00 0. -1.
        -11    1    1    2    0    0  0.16367885669E+00  0.68736129082E+00  0.34860106471E+02  0.34867266590E+02  0.00000000000E+00 0.  1.
         11    1    1    2    0    0  0.11298591780E+01  0.13779505888E+01 -0.44171704938E+02  0.44207633353E+02  0.00000000000E+00 0. -1.
        -15    1    1    2    0    0 -0.33741506150E+01 -0.30159222349E+01  0.60914265473E+01  0.77938363905E+01  0.17770000000E+01 0. -1.
         15    1    1    2    0    0  0.20806125803E+01  0.95061035533E+00  0.32201719194E+01  0.43312636664E+01  0.17770000000E+01 0. -1.
</event>
<event>
 6    1  0.3691007E-002  0.4578657E+02  0.7546771E-02  0.1317192E+00
        -11   -1    0    0    0    0  0.00000000000E+00  0.00000000000E+00  0.45600000000E+02  0.45600000000E+02  0.00000000000E+00 0. -1.
         11   -1    0    0    0    0 -0.00000000000E+00 -0.00000000000E+00 -0.45600000000E+02  0.45600000000E+02  0.00000000000E+00 0. -1.
        -11    1    1    2    0    0  0.87622463072E+00 -0.90343226058E+00  0.45395991148E+02  0.45413433825E+02  0.00000000000E+00 0. -1.
         11    1    1    2    0    0 -0.51318676653E+00 -0.69291628498E+00 -0.13476355495E+02  0.13503912435E+02  0.00000000000E+00 0. -1.
        -15    1    1    2    0    0 -0.12134553941E+01  0.18199379585E+01 -0.17033645765E+02  0.17265209678E+02  0.17770000000E+01 0.  1.
         15    1    1    2    0    0  0.85041752987E+00 -0.22358941290E+00 -0.14885989888E+02  0.15017444062E+02  0.17770000000E+01 0. -1.
</event>
<event>
 6    1  0.3691007E-002  0.4693368E+02  0.7546771E-02  0.1311700E+00
        -11   -1    0    0    0    0  0.00000000000E+00  0.00000000000E+00  0.45600000000E+02  0.45600000000E+02  0.00000000000E+00 0. -1.
         11   -1    0    0    0    0 -0.00000000000E+00 -0.00000000000E+00 -0.45600000000E+02  0.45600000000E+02  0.00000000000E+00 0. -1.
        -11    1    1    2    0    0 -0.37981347342E+00 -0.26290788974E+01  0.44186546433E+02  0.44266321281E+02  0.00000000000E+00 0. -1.
         11    1    1    2    0    0  0.37759936829E+00  0.11049191252E+01 -0.39833811356E+02  0.39850921629E+02  0.00000000000E+00 0. -1.
        -15    1    1    2    0    0 -0.38797826636E+00  0.25447846762E+01 -0.13045574574E+01  0.33891083404E+01  0.17770000000E+01 0. -1.
         15    1    1    2    0    0  0.39019237149E+00 -0.10206249040E+01 -0.30481776197E+01  0.36936487492E+01  0.17770000000E+01 0.  1.
</event>
<event>
 6    1  0.3691007E-002  0.4664430E+02  0.7546771E-02  0.1313068E+00
        -11   -1    0    0    0    0  0.00000000000E+00  0.00000000000E+00  0.45600000000E+02  0.45600000000E+02  0.00000000000E+00 0. -1.
         11   -1    0    0    0    0 -0.00000000000E+00 -0.00000000000E+00 -0.45600000000E+02  0.45600000000E+02  0.00000000000E+00 0.  1.
        -11    1    1    2    0    0 -0.21856035900E+01 -0.21460900527E+01  0.44450284873E+02  0.44555699870E+02  0.00000000000E+00 0. -1.
         11    1    1    2    0    0 -0.47440934717E+00  0.25270198267E+00 -0.35998966637E+02  0.36002979342E+02  0.00000000000E+00 0.  1.
        -15    1    1    2    0    0  0.16358304610E+01  0.49971876290E-01 -0.72343246872E+01  0.76270322646E+01  0.17770000000E+01 0. -1.
         15    1    1    2    0    0  0.10241824762E+01  0.18434161938E+01 -0.12169935490E+01  0.30142885240E+01  0.17770000000E+01 0. -1.
</event>
<event>
 6    1  0.3691007E-002  0.5542995E+02  0.7546771E-02  0.1275957E+00
        -11   -1    0    0    0    0  0.00000000000E+00  0.00000000000E+00  0.45600000000E+02  0.45600000000E+02  0.00000000000E+00 0.  1.
         11   -1    0    0    0    0 -0.00000000000E+00 -0.00000000000E+00 -0.45600000000E+02  0.45600000000E+02  0.00000000000E+00 0. -1.
        -11    1    1    2    0    0 -0.28230542459E+01  0.53847150290E+00  0.27082042622E+02  0.27234107648E+02  0.00000000000E+00 0.  1.
         11    1    1    2    0    0  0.25021583918E+01  0.16758474042E+01 -0.35643057715E+02  0.35770054856E+02  0.00000000000E+00 0. -1.
        -15    1    1    2    0    0  0.11214427054E+02  0.37538916208E+01  0.99694377445E+01  0.15569280471E+02  0.17770000000E+01 0. -1.
         15    1    1    2    0    0 -0.10893531200E+02 -0.59682105279E+01 -0.14084226512E+01  0.12626557024E+02  0.17770000000E+01 0.  1.
</event>
<event>
 6    1  0.3691007E-002  0.4592822E+02  0.7546771E-02  0.1316503E+00
        -11   -1    0    0    0    0  0.00000000000E+00  0.00000000000E+00  0.45600000000E+02  0.45600000000E+02  0.00000000000E+00 0.  1.
         11   -1    0    0    0    0 -0.00000000000E+00 -0.00000000000E+00 -0.45600000000E+02  0.45600000000E+02  0.00000000000E+00 0.  1.
        -11    1    1    2    0    0  0.98517753246E+00  0.27236889036E+00  0.24300347786E+02  0.24321835089E+02  0.00000000000E+00 0.  1.
         11    1    1    2    0    0 -0.18953823300E+00  0.84842290349E+00 -0.45263432364E+02  0.45271779903E+02  0.00000000000E+00 0.  1.
        -15    1    1    2    0    0 -0.35695564195E+00 -0.58727551350E+00  0.17881500297E+02  0.17982716472E+02  0.17770000000E+01 0.  1.
         15    1    1    2    0    0 -0.43868365752E+00 -0.53351628035E+00  0.30815842814E+01  0.36236685356E+01  0.17770000000E+01 0. -1.
</event>
<event>
 6    1  0.4794064E-002  0.5084713E+02  0.7546771E-02  0.1294242E+00
        -11   -1    0    0    0    0  0.00000000000E+00  0.00000000000E+00  0.45600000000E+02  0.45600000000E+02  0.00000000000E+00 0.  1.
         11   -1    0    0    0    0 -0.00000000000E+00 -0.00000000000E+00 -0.45600000000E+02  0.45600000000E+02  0.00000000000E+00 0.  1.
        -11    1    1    2    0    0 -0.19527850387E+00  0.42012145497E+01  0.25294631695E+02  0.25641894041E+02  0.00000000000E+00 0.  1.
         11    1    1    2    0    0 -0.55809634042E+00  0.12719825412E+00 -0.40348810448E+02  0.40352870474E+02  0.00000000000E+00 0.  1.
        -15    1    1    2    0    0  0.13729937859E+01 -0.47300430345E+01  0.19590224785E+02  0.20277895728E+02  0.17770000000E+01 0. -1.
         15    1    1    2    0    0 -0.61961894160E+00  0.40163023070E+00 -0.45360460321E+01  0.49273397569E+01  0.17770000000E+01 0. -1.
</event>
<event>
 6    1  0.3691007E-002  0.3320455E+02  0.7546771E-02  0.1393039E+00
        -11   -1    0    0    0    0  0.00000000000E+00  0.00000000000E+00  0.45600000000E+02  0.45600000000E+02  0.00000000000E+00 0. -1.
         11   -1    0    0    0    0 -0.00000000000E+00 -0.00000000000E+00 -0.45600000000E+02  0.45600000000E+02  0.00000000000E+00 0.  1.
        -11    1    1    2    0    0 -0.17416026665E+01  0.86130847232E+00  0.34005052947E+02  0.34060514647E+02  0.00000000000E+00 0. -1.
         11    1    1    2    0    0 -0.54635274262E+00 -0.38695079032E+01 -0.32243413360E+02  0.32479367263E+02  0.00000000000E+00 0.  1.
        -15    1    1    2    0    0 -0.51420645808E+01  0.64521205597E+01 -0.98790614548E+01  0.12993239477E+02  0.17770000000E+01 0.  1.
         15    1    1    2    0    0  0.74300199899E+01 -0.34439211289E+01  0.81174218676E+01  0.11666878613E+02  0.17770000000E+01 0. -1.
</event>
<event>
 6    1  0.3691007E-002  0.4772044E+02  0.7546771E-02  0.1308036E+00
        -11   -1    0    0    0    0  0.00000000000E+00  0.00000000000E+00  0.45600000000E+02  0.45600000000E+02  0.00000000000E+00 0.  1.
         11   -1    0    0    0    0 -0.00000000000E+00 -0.00000000000E+00 -0.45600000000E+02  0.45600000000E+02  0.00000000000E+00 0. -1.
        -11    1    1    2    0    0 -0.50596577927E+00  0.30931418727E+00  0.38200034041E+02  0.38204636857E+02  0.00000000000E+00 0.  1.
         11    1    1    2    0    0  0.87779226585E+00 -0.62370464769E+00 -0.43466224838E+02  0.43479561043E+02  0.00000000000E+00 0. -1.
        -15    1    1    2    0    0 -0.23759156446E+00 -0.11181190291E+01  0.65577855637E+01  0.68897692570E+01  0.17770000000E+01 0.  1.
         15    1    1    2    0    0 -0.13423492212E+00  0.14325094896E+01 -0.12915947667E+01  0.26260328431E+01  0.17770000000E+01 0.  1.
</event>
<event>
 6    1  0.3691007E-002  0.4717300E+02  0.7546771E-02  0.1310577E+00
        -11   -1    0    0    0    0  0.00000000000E+00  0.00000000000E+00  0.45600000000E+02  0.45600000000E+02  0.00000000000E+00 0.  1.
         11   -1    0    0    0    0 -0.00000000000E+00 -0.00000000000E+00 -0.45600000000E+02  0.45600000000E+02  0.00000000000E+00 0.  1.
        -11    1    1    2    0    0 -0.23787521114E+01 -0.29997320195E+00  0.43961669759E+02  0.44027001415E+02  0.00000000000E+00 0.  1.
         11    1    1    2    0    0  0.50307289156E+00  0.16836567236E+01 -0.34528176560E+02  0.34572861595E+02  0.00000000000E+00 0.  1.
        -15    1    1    2    0    0  0.10097243123E+01  0.27251250314E+01 -0.22184567806E+01  0.40651112052E+01  0.17770000000E+01 0.  1.
         15    1    1    2    0    0  0.86595490752E+00 -0.41088085531E+01 -0.72150364186E+01  0.85350257850E+01  0.17770000000E+01 0. -1.
</event>
<event>
 6    1  0.3691007E-002  0.4677755E+02  0.7546771E-02  0.1312436E+00
        -11   -1    0    0    0    0  0.00000000000E+00  0.00000000000E+00  0.45600000000E+02  0.45600000000E+02  0.00000000000E+00 0.  1.
         11   -1    0    0    0    0 -0.00000000000E+00 -0.00000000000E+00 -0.45600000000E+02  0.45600000000E+02  0.00000000000E+00 0.  1.
        -11    1    1    2    0    0  0.23626007190E+01 -0.34063834476E+00  0.44358274722E+02  0.44422454378E+02  0.00000000000E+00 0.  1.
         11    1    1    2    0    0 -0.87545364234E+00 -0.44166350275E-01 -0.22870231882E+02  0.22887024185E+02  0.00000000000E+00 0.  1.
        -15    1    1    2    0    0 -0.85716421430E+00  0.68381929882E+00 -0.21848333923E+02  0.21947887450E+02  0.17770000000E+01 0.  1.
         15    1    1    2    0    0 -0.62998286234E+00 -0.29901460379E+00  0.36029108212E+00  0.19426339861E+01  0.17770000000E+01 0.  1.
</event>
<event>
 6    1  0.3691007E-002  0.4950781E+02  0.7546771E-02  0.1300008E+00
        -11   -1    0    0    0    0  0.00000000000E+00  0.00000000000E+00  0.45600000000E+02  0.45600000000E+02  0.00000000000E+00 0.  1.
         11   -1    0    0    0    0 -0.00000000000E+00 -0.00000000000E+00 -0.45600000000E+02  0.45600000000E+02  0.00000000000E+00 0.  1.
        -11    1    1    2    0    0 -0.18102271708E+01  0.12700679901E+01  0.41633508704E+02  0.41692194019E+02  0.00000000000E+00 0.  1.
         11    1    1    2    0    0 -0.13636717982E+01  0.47799988067E+00 -0.37888383619E+02  0.37915929343E+02  0.00000000000E+00 0.  1.
        -15    1    1    2    0    0  0.39195725215E+01 -0.17624379747E+01  0.23420402398E+01  0.52069297912E+01  0.17770000000E+01 0. -1.
         15    1    1    2    0    0 -0.74567355257E+00  0.14370103974E-01 -0.60871653245E+01  0.63849468466E+01  0.17770000000E+01 0.  1.
</event>
<event>
 6    1  0.3691007E-002  0.4671989E+02  0.7546771E-02  0.1312709E+00
        -11   -1    0    0    0    0  0.00000000000E+00  0.00000000000E+00  0.45600000000E+02  0.45600000000E+02  0.00000000000E+00 0.  1.
         11   -1    0    0    0    0 -0.00000000000E+00 -0.00000000000E+00 -0.45600000000E+02  0.45600000000E+02  0.00000000000E+00 0. -1.
        -11    1    1    2    0    0 -0.18067353255E+00  0.10044147398E+01  0.41910989448E+02  0.41923412652E+02  0.00000000000E+00 0.  1.
         11    1    1    2    0    0  0.74018251897E+00 -0.55907776334E+00 -0.44470439613E+02  0.44480112831E+02  0.00000000000E+00 0. -1.
        -15    1    1    2    0    0 -0.85883869613E+00 -0.85772815331E+00  0.17698382969E+01  0.27862803319E+01  0.17770000000E+01 0. -1.
         15    1    1    2    0    0  0.29932970970E+00  0.41239117682E+00  0.78961186827E+00  0.20101941847E+01  0.17770000000E+01 0.  1.
</event>
<event>
 6    1  0.3691007E-002  0.2658768E+02  0.7546771E-02  0.1450978E+00
        -11   -1    0    0    0    0  0.00000000000E+00  0.00000000000E+00  0.45600000000E+02  0.45600000000E+02  0.00000000000E+00 0. -1.
         11   -1    0    0    0    0 -0.00000000000E+00 -0.00000000000E+00 -0.45600000000E+02  0.45600000000E+02  0.00000000000E+00 0. -1.
        -11    1    1    2    0    0  0.23301133341E+00  0.24040382475E+01  0.18011112126E+02  0.18172337609E+02  0.00000000000E+00 0. -1.
         11    1    1    2    0    0 -0.11277013625E+01  0.10944767310E+01 -0.39239129202E+02  0.39270585050E+02  0.00000000000E+00 0. -1.
        -15    1    1    2    0    0  0.13880566068E+01  0.11020911095E+02  0.64937259553E+01  0.12988971795E+02  0.17770000000E+01 0.  1.
         15    1    1    2    0    0 -0.49336657776E+00 -0.14519426074E+02  0.14734291121E+02  0.20768105545E+02  0.17770000000E+01 0. -1.
</event>
<event>
 6    1  0.3691007E-002  0.4689388E+02  0.7546771E-02  0.1311887E+00
        -11   -1    0    0    0    0  0.00000000000E+00  0.00000000000E+00  0.45600000000E+02  0.45600000000E+02  0.00000000000E+00 0.  1.
         11   -1    0    0    0    0 -0.00000000000E+00 -0.00000000000E+00 -0.45600000000E+02  0.45600000000E+02  0.00000000000E+00 0.  1.
        -11    1    1    2    0    0  0.21203354547E+00 -0.67598183149E+00  0.25476229574E+02  0.25486078218E+02  0.00000000000E+00 0.  1.
         11    1    1    2    0    0 -0.98168938564E+00  0.71319333681E+00 -0.44289498873E+02  0.44306117740E+02  0.00000000000E+00 0.  1.
        -15    1    1    2    0    0  0.15709354002E-03 -0.38649445543E+01  0.15247029034E+02  0.15829321520E+02  0.17770000000E+01 0.  1.
         15    1    1    2    0    0  0.76949874663E+00  0.38277330489E+01  0.35662402647E+01  0.55784825213E+01  0.17770000000E+01 0. -1.
</event>
<event>
 6    1  0.3691007E-002  0.4645276E+02  0.7546771E-02  0.1313980E+00
        -11   -1    0    0    0    0  0.00000000000E+00  0.00000000000E+00  0.45600000000E+02  0.45600000000E+02  0.00000000000E+00 0. -1.
         11   -1    0    0    0    0 -0.00000000000E+00 -0.00000000000E+00 -0.45600000000E+02  0.45600000000E+02  0.00000000000E+00 0.  1.
        -11    1    1    2    0    0  0.74933769936E+00 -0.30704565894E+00  0.44739915439E+02  0.44747243686E+02  0.00000000000E+00 0. -1.
         11    1    1    2    0    0  0.10016463856E+01  0.79399777043E+00 -0.38739991125E+02  0.38761071197E+02  0.00000000000E+00 0.  1.
        -15    1    1    2    0    0 -0.15766965721E+01  0.55234854926E+00 -0.45668178306E+01  0.51773173650E+01  0.17770000000E+01 0. -1.
         15    1    1    2    0    0 -0.17428751288E+00 -0.10393006607E+01 -0.14331064828E+01  0.25143677519E+01  0.17770000000E+01 0.  1.
</event>
<event>
 6    1  0.3691007E-002  0.4946858E+02  0.7546771E-02  0.1300180E+00
        -11   -1    0    0    0    0  0.00000000000E+00  0.00000000000E+00  0.45600000000E+02  0.45600000000E+02  0.00000000000E+00 0.  1.
         11   -1    0    0    0    0 -0.00000000000E+00 -0.00000000000E+00 -0.45600000000E+02  0.45600000000E+02  0.00000000000E+00 0.  1.
        -11    1    1    2    0    0  0.10842602269E+01  0.96525767027E+00  0.39647560316E+02  0.39674127358E+02  0.00000000000E+00 0.  1.
         11    1    1    2    0    0  0.62988070374E-01 -0.59083522379E+00 -0.41727185156E+02  0.41731415442E+02  0.00000000000E+00 0.  1.
        -15    1    1    2    0    0 -0.12581550960E+01  0.33683968517E+01  0.35902782481E+01  0.53830176012E+01  0.17770000000E+01 0. -1.
         15    1    1    2    0    0  0.11090679877E+00 -0.37428192982E+01 -0.15106534079E+01  0.44114395990E+01  0.17770000000E+01 0.  1.
</event>
<event>
 6    1  0.3691007E-002  0.5047983E+02  0.7546771E-02  0.1295803E+00
        -11   -1    0    0    0    0  0.00000000000E+00  0.00000000000E+00  0.45600000000E+02  0.45600000000E+02  0.00000000000E+00 0. -1.
         11   -1    0    0    0    0 -0.00000000000E+00 -0.00000000000E+00 -0.45600000000E+02  0.45600000000E+02  0.00000000000E+00 0. -1.
        -11    1    1    2    0    0 -0.28031497885E+00  0.84682188115E+00  0.40710394805E+02  0.40720166122E+02  0.00000000000E+00 0. -1.
         11    1    1    2    0    0  0.45909276495E+01 -0.49066924997E+01 -0.31552526686E+02  0.32260102111E+02  0.00000000000E+00 0. -1.
        -15    1    1    2    0    0  0.39074725124E+01  0.27329960645E+01 -0.82044386166E+01  0.96544368524E+01  0.17770000000E+01 0. -1.
         15    1    1    2    0    0 -0.82180851831E+01  0.13268745541E+01 -0.95342950323E+00  0.85652949147E+01  0.17770000000E+01 0.  1.
</event>
<event>
 6    1  0.3691007E-002  0.4589439E+02  0.7546771E-02  0.1316667E+00
        -11   -1    0    0    0    0  0.00000000000E+00  0.00000000000E+00  0.45600000000E+02  0.45600000000E+02  0.00000000000E+00 0.  1.
         11   -1    0    0    0    0 -0.00000000000E+00 -0.00000000000E+00 -0.45600000000E+02  0.45600000000E+02  0.00000000000E+00 0. -1.
        -11    1    1    2    0    0  0.16391525352E+01 -0.31255211712E-02  0.11331003056E+02  0.11448950216E+02  0.00000000000E+00 0.  1.
         11    1    1    2    0    0 -0.34674529280E+00  0.18997452523E+01 -0.45264436083E+02  0.45305611554E+02  0.00000000000E+00 0. -1.
        -15    1    1    2    0    0 -0.42467788689E+00  0.86351269753E+00  0.20102557406E+02  0.20203874597E+02  0.17770000000E+01 0.  1.
         15    1    1    2    0    0 -0.86772935546E+00 -0.27601324287E+01  0.13830875622E+02  0.14241563633E+02  0.17770000000E+01 0. -1.
</event>
<event>
 6    1  0.3691007E-002  0.4678823E+02  0.7546771E-02  0.1312386E+00
        -11   -1    0    0    0    0  0.00000000000E+00  0.00000000000E+00  0.45600000000E+02  0.45600000000E+02  0.00000000000E+00 0. -1.
         11   -1    0    0    0    0 -0.00000000000E+00 -0.00000000000E+00 -0.45600000000E+02  0.45600000000E+02  0.00000000000E+00 0. -1.
        -11    1    1    2    0    0 -0.20992131652E+01  0.36660384973E+01  0.44210387499E+02  0.44411765299E+02  0.00000000000E+00 0. -1.
         11    1    1    2    0    0 -0.95618826260E-01  0.67838180051E+00 -0.21913233353E+02  0.21923939901E+02  0.00000000000E+00 0. -1.
        -15    1    1    2    0    0  0.57611345070E+01 -0.25780419449E+01 -0.14893114060E+02  0.16272662551E+02  0.17770000000E+01 0. -1.
         15    1    1    2    0    0 -0.35663025155E+01 -0.17663783530E+01 -0.74040400856E+01  0.85916322493E+01  0.17770000000E+01 0. -1.
</event>
<event>
 6    1  0.3691007E-002  0.4819602E+02  0.7546771E-02  0.1305861E+00
        -11   -1    0    0    0    0  0.00000000000E+00  0.00000000000E+00  0.45600000000E+02  0.45600000000E+02  0.00000000000E+00 0.  1.
         11   -1    0    0    0    0 -0.00000000000E+00 -0.00000000000E+00 -0.45600000000E+02  0.45600000000E+02  0.00000000000E+00 0.  1.
        -11    1    1    2    0    0  0.13561010714E+01 -0.89668023740E+00  0.42973237340E+02  0.43003978572E+02  0.00000000000E+00 0.  1.
         11    1    1    2    0    0 -0.10742295296E+01  0.13376286685E+01 -0.40874646334E+02  0.40910633489E+02  0.00000000000E+00 0.  1.
        -15    1    1    2    0    0  0.43742110066E+00 -0.10918636019E+01 -0.39844801985E+01  0.45185522899E+01  0.17770000000E+01 0. -1.
         15    1    1    2    0    0 -0.71929264246E+00  0.65091517083E+00  0.18858891919E+01  0.27668356491E+01  0.17770000000E+01 0. -1.
</event>
<event>
 6    1  0.3691007E-002  0.4595060E+02  0.7546771E-02  0.1316395E+00
        -11   -1    0    0    0    0  0.00000000000E+00  0.00000000000E+00  0.45600000000E+02  0.45600000000E+02  0.00000000000E+00 0. -1.
         11   -1    0    0    0    0 -0.00000000000E+00 -0.00000000000E+00 -0.45600000000E+02  0.45600000000E+02  0.00000000000E+00 0. -1.
        -11    1    1    2    0    0  0.67388069767E-01 -0.10809884438E+01  0.45236435137E+02  0.45249399345E+02  0.00000000000E+00 0. -1.
         11    1    1    2    0    0  0.16971758742E+00  0.14052112182E+01 -0.20852436011E+02  0.20900418900E+02  0.00000000000E+00 0. -1.
        -15    1    1    2    0    0 -0.11399609821E+01 -0.21400698382E+01 -0.11444595468E+02  0.11832831630E+02  0.17770000000E+01 0. -1.
         15    1    1    2    0    0  0.90285532489E+00  0.18158470638E+01 -0.12939403658E+02  0.13217350125E+02  0.17770000000E+01 0. -1.
</event>
<event>
 6    1  0.3691007E-002  0.4762983E+02  0.7546771E-02  0.1308454E+00
        -11   -1    0    0    0    0  0.00000000000E+00  0.00000000000E+00  0.45600000000E+02  0.45600000000E+02  0.00000000000E+00 0.  1.
         11   -1    0    0    0    0 -0.00000000000E+00 -0.00000000000E+00 -0.45600000000E+02  0.45600000000E+02  0.00000000000E+00 0. -1.
        -11    1    1    2    0    0  0.14112499370E+01 -0.19748886622E+01  0.24076019863E+02  0.24198069015E+02  0.00000000000E+00 0.  1.
         11    1    1    2    0    0  0.69630527754E+00  0.54031035371E+00 -0.43561254460E+02  0.43570169456E+02  0.00000000000E+00 0. -1.
        -15    1    1    2    0    0 -0.21805192776E+01 -0.15277325085E+01 -0.42039725881E+00  0.32284816544E+01  0.17770000000E+01 0.  1.
         15    1    1    2    0    0  0.72964063068E-01  0.29623108170E+01  0.19905631855E+02  0.20203279874E+02  0.17770000000E+01 0.  1.
</event>
<event>
 6    1  0.3691007E-002  0.4701361E+02  0.7546771E-02  0.1311324E+00
        -11   -1    0    0    0    0  0.00000000000E+00  0.00000000000E+00  0.45600000000E+02  0.45600000000E+02  0.00000000000E+00 0.  1.
         11   -1    0    0    0    0 -0.00000000000E+00 -0.00000000000E+00 -0.45600000000E+02  0.45600000000E+02  0.00000000000E+00 0. -1.
        -11    1    1    2    0    0  0.38113434763E+00 -0.13301489953E+01  0.44164718786E+02  0.44186388687E+02  0.00000000000E+00 0.  1.
         11    1    1    2    0    0 -0.48536116473E+00  0.15940708384E+01 -0.41046491934E+02  0.41080301087E+02  0.00000000000E+00 0. -1.
        -15    1    1    2    0    0  0.12439631000E+00 -0.16091201858E+01 -0.27897919863E+01  0.36804090182E+01  0.17770000000E+01 0. -1.
         15    1    1    2    0    0 -0.20169492897E-01  0.13451983427E+01 -0.32843486566E+00  0.22529012075E+01  0.17770000000E+01 0. -1.
</event>
<event>
 6    1  0.3691007E-002  0.4622103E+02  0.7546771E-02  0.1315090E+00
        -11   -1    0    0    0    0  0.00000000000E+00  0.00000000000E+00  0.45600000000E+02  0.45600000000E+02  0.00000000000E+00 0.  1.
         11   -1    0    0    0    0 -0.00000000000E+00 -0.00000000000E+00 -0.45600000000E+02  0.45600000000E+02  0.00000000000E+00 0. -1.
        -11    1    1    2    0    0  0.13986620404E+00 -0.65916291900E+00  0.44973926682E+02  0.44978974416E+02  0.00000000000E+00 0.  1.
         11    1    1    2    0    0 -0.11202426941E+01 -0.34323603123E-02 -0.36322954439E+02  0.36340225297E+02  0.00000000000E+00 0. -1.
        -15    1    1    2    0    0  0.59902308453E+00 -0.68774422671E+00 -0.18864587897E+01  0.27474126997E+01  0.17770000000E+01 0. -1.
         15    1    1    2    0    0  0.38135340554E+00  0.13503395060E+01 -0.67645134539E+01  0.71333875872E+01  0.17770000000E+01 0.  1.
</event>
<event>
 6    1  0.3691007E-002  0.4719511E+02  0.7546771E-02  0.1310473E+00
        -11   -1    0    0    0    0  0.00000000000E+00  0.00000000000E+00  0.45600000000E+02  0.45600000000E+02  0.00000000000E+00 0.  1.
         11   -1    0    0    0    0 -0.00000000000E+00 -0.00000000000E+00 -0.45600000000E+02  0.45600000000E+02  0.00000000000E+00 0. -1.
        -11    1    1    2    0    0 -0.68242322362E-01 -0.70007851718E+00  0.43999267543E+02  0.44004889629E+02  0.00000000000E+00 0.  1.
         11    1    1    2    0    0 -0.15834507538E+01  0.58431487460E+00 -0.37291313610E+02  0.37329489830E+02  0.00000000000E+00 0. -1.
        -15    1    1    2    0    0 -0.19497055929E+01  0.11741106012E+01 -0.16666929698E+01  0.33339889110E+01  0.17770000000E+01 0.  1.
         15    1    1    2    0    0  0.36013986691E+01 -0.10583469586E+01 -0.50412609626E+01  0.65316316302E+01  0.17770000000E+01 0. -1.
</event>
<event>
 6    1  0.3691007E-002  0.4757609E+02  0.7546771E-02  0.1308702E+00
        -11   -1    0    0    0    0  0.00000000000E+00  0.00000000000E+00  0.45600000000E+02  0.45600000000E+02  0.00000000000E+00 0.  1.
         11   -1    0    0    0    0 -0.00000000000E+00 -0.00000000000E+00 -0.45600000000E+02  0.45600000000E+02  0.00000000000E+00 0. -1.
        -11    1    1    2    0    0 -0.69612389217E+00 -0.26372796848E+00  0.43154743800E+02  0.43161163717E+02  0.00000000000E+00 0.  1.
         11    1    1    2    0    0  0.41593051041E+00  0.88111405104E+00 -0.43613031305E+02  0.43623913852E+02  0.00000000000E+00 0. -1.
        -15    1    1    2    0    0 -0.99495876817E+00 -0.77739737236E+00  0.28034159007E-01  0.21800927822E+01  0.17770000000E+01 0.  1.
         15    1    1    2    0    0  0.12751521499E+01  0.16001128981E+00  0.43025334542E+00  0.22348296489E+01  0.17770000000E+01 0.  1.
</event>
<event>
 6    1  0.3691007E-002  0.5023881E+02  0.7546771E-02  0.1296835E+00
        -11   -1    0    0    0    0  0.00000000000E+00  0.00000000000E+00  0.45600000000E+02  0.45600000000E+02  0.00000000000E+00 0. -1.
         11   -1    0    0    0    0 -0.00000000000E+00 -0.00000000000E+00 -0.45600000000E+02  0.45600000000E+02  0.00000000000E+00 0. -1.
        -11    1    1    2    0    0  0.12784676432E+01  0.74446793165E+00  0.40934464669E+02  0.40961190287E+02  0.00000000000E+00 0. -1.
         11    1    1    2    0    0  0.54375614944E+00  0.42812479958E+00 -0.36895735366E+02  0.36902225540E+02  0.00000000000E+00 0. -1.
        -15    1    1    2    0    0 -0.27559783220E+01 -0.34515302582E+01  0.30298274068E+01  0.56432314102E+01  0.17770000000E+01 0.  1.
         15    1    1    2    0    0  0.93375452939E+00  0.22789375269E+01 -0.70685567094E+01  0.76933527624E+01  0.17770000000E+01 0. -1.
</event>
<event>
 6    1  0.3691007E-002  0.4653625E+02  0.7546771E-02  0.1313582E+00
        -11   -1    0    0    0    0  0.00000000000E+00  0.00000000000E+00  0.45600000000E+02  0.45600000000E+02  0.00000000000E+00 0. -1.
         11   -1    0    0    0    0 -0.00000000000E+00 -0.00000000000E+00 -0.45600000000E+02  0.45600000000E+02  0.00000000000E+00 0. -1.
        -11    1    1    2    0    0  0.46806272603E+00 -0.30219935267E+00  0.40050185281E+02  0.40054060321E+02  0.00000000000E+00 0. -1.
         11    1    1    2    0    0  0.80624599607E+00  0.64857678901E+00 -0.44651760568E+02  0.44663748234E+02  0.00000000000E+00 0. -1.
        -15    1    1    2    0    0  0.64432375790E+00 -0.46861302736E+00  0.19371067803E+01  0.27467913923E+01  0.17770000000E+01 0. -1.
         15    1    1    2    0    0 -0.19186324800E+01  0.12223559102E+00  0.26644685063E+01  0.37354000528E+01  0.17770000000E+01 0.  1.
</event>
<event>
 6    1  0.3691007E-002  0.4867767E+02  0.7546771E-02  0.1303687E+00
        -11   -1    0    0    0    0  0.00000000000E+00  0.00000000000E+00  0.45600000000E+02  0.45600000000E+02  0.00000000000E+00 0. -1.
         11   -1    0    0    0    0 -0.00000000000E+00 -0.00000000000E+00 -0.45600000000E+02  0.45600000000E+02  0.00000000000E+00 0.  1.
        -11    1    1    2    0    0 -0.38037757414E+01 -0.24906116839E+01  0.27094971693E+02  0.27473793832E+02  0.00000000000E+00 0. -1.
         11    1    1    2    0    0 -0.16741154184E+01 -0.70564308459E+00 -0.42483502601E+02  0.42522330461E+02  0.00000000000E+00 0.  1.
        -15    1    1    2    0    0  0.91956033664E+01  0.44988663581E+00  0.11882251727E+02  0.15136286016E+02  0.17770000000E+01 0. -1.
         15    1    1    2    0    0 -0.37177122066E+01  0.27463681327E+01  0.35062791798E+01  0.60675896910E+01  0.17770000000E+01 0.  1.
</event>
<event>
 6    1  0.3691007E-002  0.4853282E+02  0.7546771E-02  0.1304338E+00
        -11   -1    0    0    0    0  0.00000000000E+00  0.00000000000E+00  0.45600000000E+02  0.45600000000E+02  0.00000000000E+00 0.  1.
         11   -1    0    0    0    0 -0.00000000000E+00 -0.00000000000E+00 -0.45600000000E+02  0.45600000000E+02  0.00000000000E+00 0.  1.
        -11    1    1    2    0    0 -0.14643747551E+01  0.58879220901E+00  0.42637975384E+02  0.42667177251E+02  0.00000000000E+00 0.  1.
         11    1    1    2    0    0  0.54758999349E+00  0.10691038609E+00 -0.27493762427E+02  0.27499422849E+02  0.00000000000E+00 0.  1.
        -15    1    1    2    0    0  0.20642672618E+01 -0.35380850312E+01  0.94051362447E+00  0.45630625564E+01  0.17770000000E+01 0.  1.
         15    1    1    2    0    0 -0.11474825001E+01  0.28423824361E+01 -0.16084726582E+02  0.16470337344E+02  0.17770000000E+01 0. -1.
</event>
<event>
 6    1  0.5848784E-002  0.4782515E+02  0.7546771E-02  0.1307555E+00
        -11   -1    0    0    0    0  0.00000000000E+00  0.00000000000E+00  0.45600000000E+02  0.45600000000E+02  0.00000000000E+00 0. -1.
         11   -1    0    0    0    0 -0.00000000000E+00 -0.00000000000E+00 -0.45600000000E+02  0.45600000000E+02  0.00000000000E+00 0.  1.
        -11    1    1    2    0    0 -0.67528736416E+00  0.76971409500E+00  0.43362760403E+02  0.43374848271E+02  0.00000000000E+00 0. -1.
         11    1    1    2    0    0  0.67929714508E+00  0.14851784017E+00 -0.30857377059E+02  0.30865210531E+02  0.00000000000E+00 0.  1.
        -15    1    1    2    0    0  0.61686802517E+00  0.35591473297E+00 -0.14070530137E+02  0.14200167210E+02  0.17770000000E+01 0. -1.
         15    1    1    2    0    0 -0.62087780609E+00 -0.12741466681E+01  0.15651467927E+01  0.27597739880E+01  0.17770000000E+01 0. -1.
</event>
<event>
 6    1  0.3691007E-002  0.4605038E+02  0.7546771E-02  0.1315912E+00
        -11   -1    0    0    0    0  0.00000000000E+00  0.00000000000E+00  0.45600000000E+02  0.45600000000E+02  0.00000000000E+00 0.  1.
         11   -1    0    0    0    0 -0.00000000000E+00 -0.00000000000E+00 -0.45600000000E+02  0.45600000000E+02  0.00000000000E+00 0.  1.
        -11    1    1    2    0    0  0.18345815566E+01  0.98286881664E-01  0.45112224663E+02  0.45149619753E+02  0.00000000000E+00 0.  1.
         11    1    1    2    0    0  0.40340104000E+00  0.48231182667E+00 -0.33575111722E+02  0.33580998857E+02  0.00000000000E+00 0.  1.
        -15    1    1    2    0    0 -0.14907672448E+01  0.51680924559E+00 -0.74404808086E+01  0.78107594021E+01  0.17770000000E+01 0. -1.
         15    1    1    2    0    0 -0.74721535182E+00 -0.10974079539E+01 -0.40966321323E+01  0.46586219879E+01  0.17770000000E+01 0.  1.
</event>
<event>
 6    1  0.3691007E-002  0.4712741E+02  0.7546771E-02  0.1310790E+00
        -11   -1    0    0    0    0  0.00000000000E+00  0.00000000000E+00  0.45600000000E+02  0.45600000000E+02  0.00000000000E+00 0. -1.
         11   -1    0    0    0    0 -0.00000000000E+00 -0.00000000000E+00 -0.45600000000E+02  0.45600000000E+02  0.00000000000E+00 0. -1.
        -11    1    1    2    0    0 -0.11351742381E+01  0.18780553968E+00  0.44057564143E+02  0.44072586147E+02  0.00000000000E+00 0. -1.
         11    1    1    2    0    0  0.30658067194E+00 -0.12566892228E+01 -0.34737891949E+02  0.34761967674E+02  0.00000000000E+00 0. -1.
        -15    1    1    2    0    0 -0.26942274196E+01 -0.12559781302E+01 -0.49051952181E+01  0.60045825483E+01  0.17770000000E+01 0.  1.
         15    1    1    2    0    0  0.35228209858E+01  0.23248618133E+01 -0.44144769763E+01  0.63608636303E+01  0.17770000000E+01 0.  1.
</event>
<event>
 6    1  0.3691007E-002  0.4624290E+02  0.7546771E-02  0.1314985E+00
        -11   -1    0    0    0    0  0.00000000000E+00  0.00000000000E+00  0.45600000000E+02  0.45600000000E+02  0.00000000000E+00 0. -1.
         11   -1    0    0    0    0 -0.00000000000E+00 -0.00000000000E+00 -0.45600000000E+02  0.45600000000E+02  0.00000000000E+00 0.  1.
        -11    1    1    2    0    0 -0.17260211620E+01  0.41256834373E+00  0.44922056541E+02  0.44957096498E+02  0.00000000000E+00 0. -1.
         11    1    1    2    0    0  0.59207393918E+00  0.82555906483E+00 -0.37812141119E+02  0.37825786381E+02  0.00000000000E+00 0.  1.
        -15    1    1    2    0    0  0.43422296632E+00  0.30841751071E+00 -0.18933744111E+01  0.26507105851E+01  0.17770000000E+01 0.  1.
         15    1    1    2    0    0  0.69972425653E+00 -0.15465449193E+01 -0.52165410105E+01  0.57664065359E+01  0.17770000000E+01 0. -1.
</event>
<event>
 6    1  0.3691007E-002  0.3821968E+02  0.7546771E-02  0.1358758E+00
        -11   -1    0    0    0    0  0.00000000000E+00  0.00000000000E+00  0.45600000000E+02  0.45600000000E+02  0.00000000000E+00 0. -1.
         11   -1    0    0    0    0 -0.00000000000E+00 -0.00000000000E+00 -0.45600000000E+02  0.45600000000E+02  0.00000000000E+00 0.  1.
        -11    1    1    2    0    0  0.16835031364E+01 -0.24073471626E+01  0.38484763208E+02  0.38596716212E+02  0.00000000000E+00 0. -1.
         11    1    1    2    0    0  0.11037437012E+01  0.33332233058E+01 -0.37739696285E+02  0.37902682008E+02  0.00000000000E+00 0.  1.
        -15    1    1    2    0    0  0.20323160949E+01  0.47859989047E+01  0.28827474000E+01  0.62051636399E+01  0.17770000000E+01 0.  1.
         15    1    1    2    0    0 -0.48195629326E+01 -0.57118750479E+01 -0.36278143230E+01  0.84954381398E+01  0.17770000000E+01 0. -1.
</event>
<event>
 6    1  0.3691007E-002  0.4610691E+02  0.7546771E-02  0.1315639E+00
        -11   -1    0    0    0    0  0.00000000000E+00  0.00000000000E+00  0.45600000000E+02  0.45600000000E+02  0.00000000000E+00 0.  1.
         11   -1    0    0    0    0 -0.00000000000E+00 -0.00000000000E+00 -0.45600000000E+02  0.45600000000E+02  0.00000000000E+00 0. -1.
        -11    1    1    2    0    0 -0.29508695087E+00  0.25392460307E+01  0.45020568773E+02  0.45093086603E+02  0.00000000000E+00 0.  1.
         11    1    1    2    0    0 -0.11156941821E+00 -0.19173643434E+01 -0.35198617635E+02  0.35250977535E+02  0.00000000000E+00 0. -1.
        -15    1    1    2    0    0  0.76093969404E+00  0.91500539969E+00 -0.58363176997E+01  0.62158344083E+01  0.17770000000E+01 0. -1.
         15    1    1    2    0    0 -0.35428332496E+00 -0.15368870869E+01 -0.39856334385E+01  0.46401014534E+01  0.17770000000E+01 0.  1.
</event>
<event>
 6    1  0.3691007E-002  0.4783545E+02  0.7546771E-02  0.1307508E+00
        -11   -1    0    0    0    0  0.00000000000E+00  0.00000000000E+00  0.45600000000E+02  0.45600000000E+02  0.00000000000E+00 0. -1.
         11   -1    0    0    0    0 -0.00000000000E+00 -0.00000000000E+00 -0.45600000000E+02  0.45600000000E+02  0.00000000000E+00 0.  1.
        -11    1    1    2    0    0  0.10618066811E+01 -0.21356781635E+01  0.37383596996E+02  0.37459603295E+02  0.00000000000E+00 0. -1.
         11    1    1    2    0    0 -0.22913699487E+00  0.64090313565E+00 -0.43359212867E+02  0.43364554662E+02  0.00000000000E+00 0.  1.
        -15    1    1    2    0    0 -0.95337969953E-01 -0.52597413614E+00  0.71217077170E+01  0.73594964452E+01  0.17770000000E+01 0.  1.
         15    1    1    2    0    0 -0.73733171629E+00  0.20207491640E+01 -0.11460918461E+01  0.30163455974E+01  0.17770000000E+01 0.  1.
</event>
<event>
 6    1  0.3691007E-002  0.5241334E+02  0.7546771E-02  0.1287753E+00
        -11   -1    0    0    0    0  0.00000000000E+00  0.00000000000E+00  0.45600000000E+02  0.45600000000E+02  0.00000000000E+00 0.  1.
         11   -1    0    0    0    0 -0.00000000000E+00 -0.00000000000E+00 -0.45600000000E+02  0.45600000000E+02  0.00000000000E+00 0. -1.
        -11    1    1    2    0    0  0.94555351804E+00  0.86252027992E+00  0.26866757517E+02  0.26897224246E+02  0.00000000000E+00 0.  1.
         11    1    1    2    0    0  0.24016599839E+01 -0.20387242332E+01 -0.38658512970E+02  0.38786659978E+02  0.00000000000E+00 0. -1.
        -15    1    1    2    0    0 -0.36582720354E+01 -0.63545431184E+00  0.18177404226E+02  0.18637663745E+02  0.17770000000E+01 0.  1.
         15    1    1    2    0    0  0.31105853348E+00  0.18116582652E+01 -0.63856487733E+01  0.68784520306E+01  0.17770000000E+01 0. -1.
</event>
<event>
 6    1  0.3691007E-002  0.4748505E+02  0.7546771E-02  0.1309124E+00
        -11   -1    0    0    0    0  0.00000000000E+00  0.00000000000E+00  0.45600000000E+02  0.45600000000E+02  0.00000000000E+00 0. -1.
         11   -1    0    0    0    0 -0.00000000000E+00 -0.00000000000E+00 -0.45600000000E+02  0.45600000000E+02  0.00000000000E+00 0.  1.
        -11    1    1    2    0    0 -0.14992197608E+01 -0.18329092870E+01  0.40274826348E+02  0.40344378216E+02  0.00000000000E+00 0. -1.
         11    1    1    2    0    0  0.27350511321E+01 -0.14219174550E+01 -0.43606130672E+02  0.43714951517E+02  0.00000000000E+00 0.  1.
        -15    1    1    2    0    0 -0.16421764296E+01  0.22549445011E+01  0.11321552108E+00  0.33093904096E+01  0.17770000000E+01 0. -1.
         15    1    1    2    0    0  0.40634505831E+00  0.99988224089E+00  0.32180888030E+01  0.38312798574E+01  0.17770000000E+01 0. -1.
</event>
<event>
 6    1  0.3691007E-002  0.5660666E+02  0.7546771E-02  0.1271585E+00
        -11   -1    0    0    0    0  0.00000000000E+00  0.00000000000E+00  0.45600000000E+02  0.45600000000E+02  0.00000000000E+00 0.  1.
         11   -1    0    0    0    0 -0.00000000000E+00 -0.00000000000E+00 -0.45600000000E+02  0.45600000000E+02  0.00000000000E+00 0. -1.
        -11    1    1    2    0    0  0.10602684985E+01 -0.37267208248E+00  0.34575083804E+02  0.34593344357E+02  0.00000000000E+00 0.  1.
         11    1    1    2    0    0  0.10272554889E+00 -0.21961645843E+01 -0.32125463403E+02  0.32200606986E+02  0.00000000000E+00 0. -1.
        -15    1    1    2    0    0  0.73073487667E+01  0.56385732132E+01  0.66220241789E+01  0.11497816623E+02  0.17770000000E+01 0. -1.
         15    1    1    2    0    0 -0.84703428141E+01 -0.30697365464E+01 -0.90716445793E+01  0.12908232033E+02  0.17770000000E+01 0.  1.
</event>
<event>
 6    1  0.3691007E-002  0.4689521E+02  0.7546771E-02  0.1311881E+00
        -11   -1    0    0    0    0  0.00000000000E+00  0.00000000000E+00  0.45600000000E+02  0.45600000000E+02  0.00000000000E+00 0.  1.
         11   -1    0    0    0    0 -0.00000000000E+00 -0.00000000000E+00 -0.45600000000E+02  0.45600000000E+02  0.00000000000E+00 0.  1.
        -11    1    1    2    0    0 -0.59016517735E+00 -0.41603748573E+00  0.36747535700E+02  0.36754629125E+02  0.00000000000E+00 0.  1.
         11    1    1    2    0    0  0.22350200339E+01 -0.21023395811E+01 -0.44198403111E+02  0.44304785112E+02  0.00000000000E+00 0.  1.
        -15    1    1    2    0    0 -0.74862458305E+00 -0.14285158648E+01  0.32718792671E+01  0.40575878649E+01  0.17770000000E+01 0.  1.
         15    1    1    2    0    0 -0.89623027348E+00  0.39468929316E+01  0.41789881444E+01  0.60829978980E+01  0.17770000000E+01 0.  1.
</event>
<event>
 6    1  0.3691007E-002  0.4656494E+02  0.7546771E-02  0.1313445E+00
        -11   -1    0    0    0    0  0.00000000000E+00  0.00000000000E+00  0.45600000000E+02  0.45600000000E+02  0.00000000000E+00 0.  1.
         11   -1    0    0    0    0 -0.00000000000E+00 -0.00000000000E+00 -0.45600000000E+02  0.45600000000E+02  0.00000000000E+00 0. -1.
        -11    1    1    2    0    0  0.40156164722E+00  0.11072895710E+01  0.37295688993E+02  0.37314283584E+02  0.00000000000E+00 0.  1.
         11    1    1    2    0    0 -0.14590026990E+01 -0.10283576668E+01 -0.44599358667E+02  0.44635064713E+02  0.00000000000E+00 0. -1.
        -15    1    1    2    0    0 -0.45010218398E-01  0.73048185401E+00  0.36176695512E+00  0.19555648771E+01  0.17770000000E+01 0. -1.
         15    1    1    2    0    0  0.11024512702E+01 -0.80941375820E+00  0.69419027192E+01  0.72950868260E+01  0.17770000000E+01 0. -1.
</event>
<event>
 6    1  0.3691007E-002  0.4663084E+02  0.7546771E-02  0.1313132E+00
        -11   -1    0    0    0    0  0.00000000000E+00  0.00000000000E+00  0.45600000000E+02  0.45600000000E+02  0.00000000000E+00 0.  1.
         11   -1    0    0    0    0 -0.00000000000E+00 -0.00000000000E+00 -0.45600000000E+02  0.45600000000E+02  0.00000000000E+00 0.  1.
        -11    1    1    2    0    0 -0.47456839809E+00  0.49701358741E+00  0.44563857349E+02  0.44569155472E+02  0.00000000000E+00 0.  1.
         11    1    1    2    0    0  0.55773891255E+00 -0.49803396747E+00 -0.33511132248E+02  0.33519473371E+02  0.00000000000E+00 0.  1.
        -15    1    1    2    0    0  0.24824125284E+01 -0.11862563921E+01 -0.32036096390E+01  0.45815303020E+01  0.17770000000E+01 0.  1.
         15    1    1    2    0    0 -0.25655830428E+01  0.11872767722E+01 -0.78491154622E+01  0.85298408556E+01  0.17770000000E+01 0. -1.
</event>
<event>
 6    1  0.3691007E-002  0.4616130E+02  0.7546771E-02  0.1315377E+00
        -11   -1    0    0    0    0  0.00000000000E+00  0.00000000000E+00  0.45600000000E+02  0.45600000000E+02  0.00000000000E+00 0. -1.
         11   -1    0    0    0    0 -0.00000000000E+00 -0.00000000000E+00 -0.45600000000E+02  0.45600000000E+02  0.00000000000E+00 0.  1.
        -11    1    1    2    0    0  0.25480407728E+00 -0.56361680298E+00  0.32528151731E+02  0.32534032090E+02  0.00000000000E+00 0. -1.
         11    1    1    2    0    0  0.19267978264E-01  0.83242246904E+00 -0.45031007179E+02  0.45038704533E+02  0.00000000000E+00 0.  1.
        -15    1    1    2    0    0 -0.67830267688E+00  0.16864055246E+01  0.79644782356E+01  0.83603050590E+01  0.17770000000E+01 0. -1.
         15    1    1    2    0    0  0.40423062134E+00 -0.19552111906E+01  0.45383772129E+01  0.52669583178E+01  0.17770000000E+01 0. -1.
</event>
<event>
 6    1  0.4176012E-002  0.3825769E+02  0.7546771E-02  0.1358522E+00
        -11   -1    0    0    0    0  0.00000000000E+00  0.00000000000E+00  0.45600000000E+02  0.45600000000E+02  0.00000000000E+00 0. -1.
         11   -1    0    0    0    0 -0.00000000000E+00 -0.00000000000E+00 -0.45600000000E+02  0.45600000000E+02  0.00000000000E+00 0.  1.
        -11    1    1    2    0    0 -0.23804999085E+01  0.26161873537E+01  0.39402142861E+02  0.39560587434E+02  0.00000000000E+00 0. -1.
         11    1    1    2    0    0  0.37727285522E+01  0.24845962615E+01 -0.36902511345E+02  0.37177977929E+02  0.00000000000E+00 0.  1.
        -15    1    1    2    0    0 -0.37902825389E+01 -0.31986582050E-01 -0.62228070150E+01  0.74998880667E+01  0.17770000000E+01 0. -1.
         15    1    1    2    0    0  0.23980538953E+01 -0.50687970331E+01  0.37231754998E+01  0.69615465702E+01  0.17770000000E+01 0. -1.
</event>
<event>
 6    1  0.3691007E-002  0.3385586E+02  0.7546771E-02  0.1388200E+00
        -11   -1    0    0    0    0  0.00000000000E+00  0.00000000000E+00  0.45600000000E+02  0.45600000000E+02  0.00000000000E+00 0.  1.
         11   -1    0    0    0    0 -0.00000000000E+00 -0.00000000000E+00 -0.45600000000E+02  0.45600000000E+02  0.00000000000E+00 0. -1.
        -11    1    1    2    0    0  0.46096211077E+01 -0.71923450599E+00  0.36170465912E+02  0.36470104323E+02  0.00000000000E+00 0.  1.
         11    1    1    2    0    0  0.22772718764E+01 -0.61593226362E+01 -0.31423332715E+02  0.32102165993E+02  0.00000000000E+00 0. -1.
        -15    1    1    2    0    0 -0.20519205736E+01  0.43147641631E+01 -0.12194171049E+02  0.13216773600E+02  0.17770000000E+01 0.  1.
         15    1    1    2    0    0 -0.48349724106E+01  0.25637929790E+01  0.74470378517E+01  0.94109560840E+01  0.17770000000E+01 0.  1.
</event>
<event>
 6    1  0.3691007E-002  0.4899687E+02  0.7546771E-02  0.1302262E+00
        -11   -1    0    0    0    0  0.00000000000E+00  0.00000000000E+00  0.45600000000E+02  0.45600000000E+02  0.00000000000E+00 0.  1.
         11   -1    0    0    0    0 -0.00000000000E+00 -0.00000000000E+00 -0.45600000000E+02  0.45600000000E+02  0.00000000000E+00 0. -1.
        -11    1    1    2    0    0 -0.18184090658E+01  0.28723517761E+00  0.35511760256E+02  0.35559446453E+02  0.00000000000E+00 0.  1.
         11    1    1    2    0    0 -0.54244289795E+00  0.21307584708E+00 -0.42199107156E+02  0.42203131286E+02  0.00000000000E+00 0. -1.
        -15    1    1    2    0    0 -0.15346832268E+01 -0.23658273917E+01 -0.17716194780E+01  0.37747524990E+01  0.17770000000E+01 0.  1.
         15    1    1    2    0    0  0.38955351905E+01  0.18655163670E+01  0.84589663780E+01  0.96626697615E+01  0.17770000000E+01 0. -1.
</event>
<event>
 6    1  0.3691007E-002  0.4670389E+02  0.7546771E-02  0.1312785E+00
        -11   -1    0    0    0    0  0.00000000000E+00  0.00000000000E+00  0.45600000000E+02  0.45600000000E+02  0.00000000000E+00 0. -1.
         11   -1    0    0    0    0 -0.00000000000E+00 -0.00000000000E+00 -0.45600000000E+02  0.45600000000E+02  0.00000000000E+00 0.  1.
        -11    1    1    2    0    0  0.58167589354E+00  0.90431984753E+00  0.40910857025E+02  0.40924984590E+02  0.00000000000E+00 0. -1.
         11    1    1    2    0    0  0.15879279311E+01  0.18779388254E+00 -0.44467371399E+02  0.44496111075E+02  0.00000000000E+00 0.  1.
        -15    1    1    2    0    0 -0.26047436804E+00 -0.61339721938E+00  0.16217235998E+01  0.24963612478E+01  0.17770000000E+01 0.  1.
         15    1    1    2    0    0 -0.19091294566E+01 -0.47871651069E+00  0.19347907741E+01  0.32825430872E+01  0.17770000000E+01 0. -1.
</event>
<event>
 6    1  0.3691007E-002  0.4806564E+02  0.7546771E-02  0.1306455E+00
        -11   -1    0    0    0    0  0.00000000000E+00  0.00000000000E+00  0.45600000000E+02  0.45600000000E+02  0.00000000000E+00 0. -1.
         11   -1    0    0    0    0 -0.00000000000E+00 -0.00000000000E+00 -0.45600000000E+02  0.45600000000E+02  0.00000000000E+00 0. -1.
        -11    1    1    2    0    0  0.10697704829E+01 -0.95200545850E+00  0.43110586741E+02  0.43134364635E+02  0.00000000000E+00 0. -1.
         11    1    1    2    0    0  0.22990077202E+00  0.12960646055E+01 -0.28270263992E+02  0.28300891576E+02  0.00000000000E+00 0. -1.
        -15    1    1    2    0    0  0.10139737969E+01  0.24552026535E+00  0.18753118944E+01  0.27862065184E+01  0.17770000000E+01 0. -1.
         15    1    1    2    0    0 -0.23136450518E+01 -0.58957941236E+00 -0.16715634644E+02  0.16978537271E+02  0.17770000000E+01 0. -1.
</event>
<event>
 6    1  0.3691007E-002  0.4895221E+02  0.7546771E-02  0.1302461E+00
        -11   -1    0    0    0    0  0.00000000000E+00  0.00000000000E+00  0.45600000000E+02  0.45600000000E+02  0.00000000000E+00 0.  1.
         11   -1    0    0    0    0 -0.00000000000E+00 -0.00000000000E+00 -0.45600000000E+02  0.45600000000E+02  0.00000000000E+00 0.  1.
        -11    1    1    2    0    0 -0.10949595491E+00  0.80550161875E+00  0.42239968148E+02  0.42247789662E+02  0.00000000000E+00 0.  1.
         11    1    1    2    0    0  0.32934805325E+00  0.86636798181E+00 -0.39829752916E+02  0.39840535651E+02  0.00000000000E+00 0.  1.
        -15    1    1    2    0    0 -0.32932317273E+01 -0.17475824698E+01  0.93350726939E+00  0.42342159274E+01  0.17770000000E+01 0.  1.
         15    1    1    2    0    0  0.30733796289E+01  0.75712869209E-01 -0.33437225013E+01  0.48774587592E+01  0.17770000000E+01 0. -1.
</event>
<event>
 6    1  0.3691007E-002  0.4608288E+02  0.7546771E-02  0.1315755E+00
        -11   -1    0    0    0    0  0.00000000000E+00  0.00000000000E+00  0.45600000000E+02  0.45600000000E+02  0.00000000000E+00 0. -1.
         11   -1    0    0    0    0 -0.00000000000E+00 -0.00000000000E+00 -0.45600000000E+02  0.45600000000E+02  0.00000000000E+00 0.  1.
        -11    1    1    2    0    0 -0.58230102408E+00  0.17065723425E+01  0.37250973986E+02  0.37294591117E+02  0.00000000000E+00 0. -1.
         11    1    1    2    0    0 -0.11140637874E+00 -0.68027513205E+00 -0.45111849584E+02  0.45117116026E+02  0.00000000000E+00 0.  1.
        -15    1    1    2    0    0 -0.18937350760E+00 -0.67718268016E+00  0.40147180397E+01  0.44463612815E+01  0.17770000000E+01 0.  1.
         15    1    1    2    0    0  0.88308091043E+00 -0.34911453028E+00  0.38461575575E+01  0.43419315756E+01  0.17770000000E+01 0. -1.
</event>
<event>
 6    1  0.3691007E-002  0.4648059E+02  0.7546771E-02  0.1313847E+00
        -11   -1    0    0    0    0  0.00000000000E+00  0.00000000000E+00  0.45600000000E+02  0.45600000000E+02  0.00000000000E+00 0.  1.
         11   -1    0    0    0    0 -0.00000000000E+00 -0.00000000000E+00 -0.45600000000E+02  0.45600000000E+02  0.00000000000E+00 0.  1.
        -11    1    1    2    0    0  0.15472937313E+01 -0.12689788374E+01  0.27619288358E+02  0.27691686741E+02  0.00000000000E+00 0.  1.
         11    1    1    2    0    0 -0.37789498376E+01  0.31981847384E+01 -0.44444539063E+02  0.44719413011E+02  0.00000000000E+00 0.  1.
        -15    1    1    2    0    0  0.37710565248E+01 -0.18566362272E+01  0.15346182916E+02  0.16010341173E+02  0.17770000000E+01 0.  1.
         15    1    1    2    0    0 -0.15394004185E+01 -0.72569673810E-01  0.14790677893E+01  0.27785590747E+01  0.17770000000E+01 0.  1.
</event>
<event>
 6    1  0.3691007E-002  0.4799801E+02  0.7546771E-02  0.1306763E+00
        -11   -1    0    0    0    0  0.00000000000E+00  0.00000000000E+00  0.45600000000E+02  0.45600000000E+02  0.00000000000E+00 0.  1.
         11   -1    0    0    0    0 -0.00000000000E+00 -0.00000000000E+00 -0.45600000000E+02  0.45600000000E+02  0.00000000000E+00 0.  1.
        -11    1    1    2    0    0 -0.17370594331E+01 -0.48074185438E+00  0.32618794852E+02  0.32668551633E+02  0.00000000000E+00 0.  1.
         11    1    1    2    0    0 -0.60480958780E+01  0.67840386626E+00 -0.42771159323E+02  0.43201987980E+02  0.00000000000E+00 0.  1.
        -15    1    1    2    0    0  0.89500890393E+00  0.86093243050E+00  0.72584384341E+01  0.75752823769E+01  0.17770000000E+01 0. -1.
         15    1    1    2    0    0  0.68901464071E+01 -0.10585944424E+01  0.28939260367E+01  0.77541780100E+01  0.17770000000E+01 0. -1.
</event>
<event>
 6    1  0.3691007E-002  0.5007970E+02  0.7546771E-02  0.1297520E+00
        -11   -1    0    0    0    0  0.00000000000E+00  0.00000000000E+00  0.45600000000E+02  0.45600000000E+02  0.00000000000E+00 0. -1.
         11   -1    0    0    0    0 -0.00000000000E+00 -0.00000000000E+00 -0.45600000000E+02  0.45600000000E+02  0.00000000000E+00 0.  1.
        -11    1    1    2    0    0  0.29887217422E+01 -0.14745298739E+01  0.37656188616E+02  0.37803376001E+02  0.00000000000E+00 0. -1.
         11    1    1    2    0    0 -0.54247819080E+00 -0.31366742954E+00 -0.41115528413E+02  0.41120303337E+02  0.00000000000E+00 0.  1.
        -15    1    1    2    0    0  0.17102141897E+01  0.22100878701E+01 -0.29411447880E+01  0.44291514574E+01  0.17770000000E+01 0.  1.
         15    1    1    2    0    0 -0.41564577412E+01 -0.42189056667E+00  0.64004845846E+01  0.78471692044E+01  0.17770000000E+01 0. -1.
</event>
<event>
 6    1  0.3691007E-002  0.4608170E+02  0.7546771E-02  0.1315761E+00
        -11   -1    0    0    0    0  0.00000000000E+00  0.00000000000E+00  0.45600000000E+02  0.45600000000E+02  0.00000000000E+00 0. -1.
         11   -1    0    0    0    0 -0.00000000000E+00 -0.00000000000E+00 -0.45600000000E+02  0.45600000000E+02  0.00000000000E+00 0.  1.
        -11    1    1    2    0    0  0.53267790379E+00 -0.25794170944E+01  0.45041358562E+02  0.45118301380E+02  0.00000000000E+00 0. -1.
         11    1    1    2    0    0 -0.53711520978E-01 -0.53033167525E+00 -0.23528420164E+02  0.23534457547E+02  0.00000000000E+00 0.  1.
        -15    1    1    2    0    0  0.11619233225E+01  0.36246721918E+01 -0.11836563744E+02  0.12559868016E+02  0.17770000000E+01 0.  1.
         15    1    1    2    0    0 -0.16408897053E+01 -0.51492342208E+00 -0.96763746535E+01  0.99873730576E+01  0.17770000000E+01 0.  1.
</event>
<event>
 6    1  0.3925792E-002  0.4042146E+02  0.7546771E-02  0.1345585E+00
        -11   -1    0    0    0    0  0.00000000000E+00  0.00000000000E+00  0.45600000000E+02  0.45600000000E+02  0.00000000000E+00 0.  1.
         11   -1    0    0    0    0 -0.00000000000E+00 -0.00000000000E+00 -0.45600000000E+02  0.45600000000E+02  0.00000000000E+00 0.  1.
        -11    1    1    2    0    0 -0.65376936681E+00 -0.10255808051E+00  0.40146116853E+02  0.40151570715E+02  0.00000000000E+00 0.  1.
         11    1    1    2    0    0  0.26691755389E+01  0.21640778076E+01 -0.40598852890E+02  0.40744012895E+02  0.00000000000E+00 0.  1.
        -15    1    1    2    0    0  0.73263532138E+00 -0.70546202271E+00  0.44891547643E+01  0.49340318886E+01  0.17770000000E+01 0.  1.
         15    1    1    2    0    0 -0.27480414935E+01 -0.13560577043E+01 -0.40364187277E+01  0.53703845014E+01  0.17770000000E+01 0.  1.
</event>
<event>
 6    1  0.3691007E-002  0.4590270E+02  0.7546771E-02  0.1316627E+00
        -11   -1    0    0    0    0  0.00000000000E+00  0.00000000000E+00  0.45600000000E+02  0.45600000000E+02  0.00000000000E+00 0. -1.
         11   -1    0    0    0    0 -0.00000000000E+00 -0.00000000000E+00 -0.45600000000E+02  0.45600000000E+02  0.00000000000E+00 0.  1.
        -11    1    1    2    0    0  0.57941067775E+00 -0.82467341421E-01  0.14891895393E+02  0.14903391091E+02  0.00000000000E+00 0. -1.
         11    1    1    2    0    0  0.17413128320E+01  0.24519779213E+01 -0.45197359245E+02  0.45297302887E+02  0.00000000000E+00 0.  1.
        -15    1    1    2    0    0 -0.10312173686E+01 -0.24706710725E-01  0.21976839426E+02  0.22072680395E+02  0.17770000000E+01 0. -1.
         15    1    1    2    0    0 -0.12895061411E+01 -0.23448038691E+01  0.83286244259E+01  0.89266256279E+01  0.17770000000E+01 0. -1.
</event>
<event>
 6    1  0.3691007E-002  0.4106769E+02  0.7546771E-02  0.1341902E+00
        -11   -1    0    0    0    0  0.00000000000E+00  0.00000000000E+00  0.45600000000E+02  0.45600000000E+02  0.00000000000E+00 0.  1.
         11   -1    0    0    0    0 -0.00000000000E+00 -0.00000000000E+00 -0.45600000000E+02  0.45600000000E+02  0.00000000000E+00 0. -1.
        -11    1    1    2    0    0  0.12575288373E+01 -0.11623574866E+01  0.41634179739E+02  0.41669381760E+02  0.00000000000E+00 0.  1.
         11    1    1    2    0    0 -0.33591439993E+00 -0.23329041774E+01 -0.40484977537E+02  0.40553528657E+02  0.00000000000E+00 0. -1.
        -15    1    1    2    0    0 -0.36216907969E+01  0.31158661847E+01 -0.22074661699E+01  0.55548089257E+01  0.17770000000E+01 0. -1.
         15    1    1    2    0    0  0.27000763595E+01  0.37939547927E+00  0.10582639677E+01  0.34222806580E+01  0.17770000000E+01 0.  1.
</event>
<event>
 6    1  0.3691007E-002  0.4648639E+02  0.7546771E-02  0.1313819E+00
        -11   -1    0    0    0    0  0.00000000000E+00  0.00000000000E+00  0.45600000000E+02  0.45600000000E+02  0.00000000000E+00 0.  1.
         11   -1    0    0    0    0 -0.00000000000E+00 -0.00000000000E+00 -0.45600000000E+02  0.45600000000E+02  0.00000000000E+00 0. -1.
        -11    1    1    2    0    0  0.10946107909E+01  0.88837886165E+00  0.41251045798E+02  0.41275127731E+02  0.00000000000E+00 0.  1.
         11    1    1    2    0    0 -0.56753057134E+00 -0.12732671572E+01 -0.44691878879E+02  0.44713614683E+02  0.00000000000E+00 0. -1.
        -15    1    1    2    0    0  0.19859722121E+00  0.78008796223E+00  0.18228172837E+01  0.26699007350E+01  0.17770000000E+01 0.  1.
         15    1    1    2    0    0 -0.72567744073E+00 -0.39519966670E+00  0.16180157979E+01  0.25413568516E+01  0.17770000000E+01 0.  1.
</event>
<event>
 6    1  0.3691007E-002  0.4114733E+02  0.7546771E-02  0.1341453E+00
        -11   -1    0    0    0    0  0.00000000000E+00  0.00000000000E+00  0.45600000000E+02  0.45600000000E+02  0.00000000000E+00 0.  1.
         11   -1    0    0    0    0 -0.00000000000E+00 -0.00000000000E+00 -0.45600000000E+02  0.45600000000E+02  0.00000000000E+00 0.  1.
        -11    1    1    2    0    0 -0.17031428941E+01 -0.19879325604E-01  0.40519629228E+02  0.40555412015E+02  0.00000000000E+00 0.  1.
         11    1    1    2    0    0 -0.47453223568E-01  0.29724976419E+01 -0.41713663660E+02  0.41819465922E+02  0.00000000000E+00 0.  1.
        -15    1    1    2    0    0  0.16899266195E+01  0.21903669425E+01  0.69432685673E+00  0.33605621711E+01  0.17770000000E+01 0. -1.
         15    1    1    2    0    0  0.60669498118E-01 -0.51429852588E+01  0.49970757511E+00  0.54645598927E+01  0.17770000000E+01 0. -1.
</event>
<event>
 6    1  0.3691007E-002  0.4812898E+02  0.7546771E-02  0.1306166E+00
        -11   -1    0    0    0    0  0.00000000000E+00  0.00000000000E+00  0.45600000000E+02  0.45600000000E+02  0.00000000000E+00 0. -1.
         11   -1    0    0    0    0 -0.00000000000E+00 -0.00000000000E+00 -0.45600000000E+02  0.45600000000E+02  0.00000000000E+00 0.  1.
        -11    1    1    2    0    0  0.32217388959E+01  0.22506668470E+01  0.42891343554E+02  0.43071016411E+02  0.00000000000E+00 0. -1.
         11    1    1    2    0    0 -0.12161631360E+01 -0.25140791726E+00 -0.40814534052E+02  0.40833423180E+02  0.00000000000E+00 0.  1.
        -15    1    1    2    0    0 -0.35606823516E+01 -0.13096627198E+01 -0.18726217710E+00  0.41936227026E+01  0.17770000000E+01 0. -1.
         15    1    1    2    0    0  0.15551065916E+01 -0.68959620990E+00 -0.18895473254E+01  0.31019377071E+01  0.17770000000E+01 0. -1.
</event>
<event>
 6    1  0.3691007E-002  0.4636598E+02  0.7546771E-02  0.1314395E+00
        -11   -1    0    0    0    0  0.00000000000E+00  0.00000000000E+00  0.45600000000E+02  0.45600000000E+02  0.00000000000E+00 0. -1.
         11   -1    0    0    0    0 -0.00000000000E+00 -0.00000000000E+00 -0.45600000000E+02  0.45600000000E+02  0.00000000000E+00 0.  1.
        -11    1    1    2    0    0 -0.13871221883E+00 -0.26913511252E+01  0.44752953049E+02  0.44834020771E+02  0.00000000000E+00 0. -1.
         11    1    1    2    0    0 -0.12186660519E+01 -0.77807067198E+00 -0.28600523784E+02  0.28637047711E+02  0.00000000000E+00 0.  1.
        -15    1    1    2    0    0  0.14965649902E+00  0.23101695253E+01 -0.14476396593E+02  0.14767635817E+02  0.17770000000E+01 0.  1.
         15    1    1    2    0    0  0.12077217717E+01  0.11592522719E+01 -0.16760326716E+01  0.29612957002E+01  0.17770000000E+01 0. -1.
</event>
<event>
 6    1  0.3691007E-002  0.4664067E+02  0.7546771E-02  0.1313085E+00
        -11   -1    0    0    0    0  0.00000000000E+00  0.00000000000E+00  0.45600000000E+02  0.45600000000E+02  0.00000000000E+00 0. -1.
         11   -1    0    0    0    0 -0.00000000000E+00 -0.00000000000E+00 -0.45600000000E+02  0.45600000000E+02  0.00000000000E+00 0.  1.
        -11    1    1    2    0    0  0.21085138108E-01 -0.21486135200E+01  0.16961626207E+02  0.17097185389E+02  0.00000000000E+00 0. -1.
         11    1    1    2    0    0 -0.25559880011E+01 -0.20059577943E+01 -0.44440712725E+02  0.44559329987E+02  0.00000000000E+00 0.  1.
        -15    1    1    2    0    0  0.68559474026E+00  0.29956039076E+01  0.23498489411E+01  0.42571354177E+01  0.17770000000E+01 0.  1.
         15    1    1    2    0    0  0.18493081227E+01  0.11589674068E+01  0.25129237577E+02  0.25286349206E+02  0.17770000000E+01 0. -1.
</event>
<event>
 6    1  0.3691007E-002  0.4814406E+02  0.7546771E-02  0.1306097E+00
        -11   -1    0    0    0    0  0.00000000000E+00  0.00000000000E+00  0.45600000000E+02  0.45600000000E+02  0.00000000000E+00 0. -1.
         11   -1    0    0    0    0 -0.00000000000E+00 -0.00000000000E+00 -0.45600000000E+02  0.45600000000E+02  0.00000000000E+00 0.  1.
        -11    1    1    2    0    0 -0.37544796764E-01  0.99679826493E+00  0.43044379150E+02  0.43055935628E+02  0.00000000000E+00 0. -1.
         11    1    1    2    0    0  0.15435051616E+01 -0.26081565954E+01 -0.34744970232E+02  0.34876895582E+02  0.00000000000E+00 0.  1.
        -15    1    1    2    0    0  0.47807879800E+00  0.79860148457E+00 -0.98688276631E+01  0.10070641097E+02  0.17770000000E+01 0.  1.
         15    1    1    2    0    0 -0.19840391629E+01  0.81275684586E+00  0.15694187448E+01  0.31965276922E+01  0.17770000000E+01 0.  1.
</event>
<event>
 6    1  0.3691007E-002  0.4703553E+02  0.7546771E-02  0.1311221E+00
        -11   -1    0    0    0    0  0.00000000000E+00  0.00000000000E+00  0.45600000000E+02  0.45600000000E+02  0.00000000000E+00 0.  1.
         11   -1    0    0    0    0 -0.00000000000E+00 -0.00000000000E+00 -0.45600000000E+02  0.45600000000E+02  0.00000000000E+00 0.  1.
        -11    1    1    2    0    0 -0.16672207784E+01  0.12431608142E+01  0.44115478646E+02  0.44164471355E+02  0.00000000000E+00 0.  1.
         11    1    1    2    0    0 -0.81443495884E+00 -0.14130910854E+01 -0.35441169931E+02  0.35478678904E+02  0.00000000000E+00 0.  1.
        -15    1    1    2    0    0  0.15073617673E+01 -0.14828911114E+01 -0.84982376546E+01  0.89358199277E+01  0.17770000000E+01 0.  1.
         15    1    1    2    0    0  0.97429396995E+00  0.16528213826E+01 -0.17607106025E+00  0.26210298130E+01  0.17770000000E+01 0. -1.
</event>
<event>
 6    1  0.3691007E-002  0.4775969E+02  0.7546771E-02  0.1307856E+00
        -11   -1    0    0    0    0  0.00000000000E+00  0.00000000000E+00  0.45600000000E+02  0.45600000000E+02  0.00000000000E+00 0.  1.
         11   -1    0    0    0    0 -0.00000000000E+00 -0.00000000000E+00 -0.45600000000E+02  0.45600000000E+02  0.00000000000E+00 0. -1.
        -11    1    1    2    0    0  0.85725552167E+00  0.53142122891E+00  0.24878801378E+02  0.24899238011E+02  0.00000000000E+00 0.  1.
         11    1    1    2    0    0  0.36260526624E+00  0.42675773196E+01 -0.43228660321E+02  0.43440312751E+02  0.00000000000E+00 0. -1.
        -15    1    1    2    0    0  0.11894321388E+01 -0.43763932287E+01  0.66151794018E+00  0.49155774320E+01  0.17770000000E+01 0. -1.
         15    1    1    2    0    0 -0.24092929268E+01 -0.42260531977E+00  0.17688341003E+02  0.17944871805E+02  0.17770000000E+01 0.  1.
</event>
<event>
 6    1  0.3691007E-002  0.5549284E+02  0.7546771E-02  0.1275720E+00
        -11   -1    0    0    0    0  0.00000000000E+00  0.00000000000E+00  0.45600000000E+02  0.45600000000E+02  0.00000000000E+00 0. -1.
         11   -1    0    0    0    0 -0.00000000000E+00 -0.00000000000E+00 -0.45600000000E+02  0.45600000000E+02  0.00000000000E+00 0.  1.
        -11    1    1    2    0    0 -0.71985139802E+00 -0.86217389347E-01  0.30765223648E+02  0.30773764891E+02  0.00000000000E+00 0. -1.
         11    1    1    2    0    0 -0.35415316358E+00 -0.91872712531E+00 -0.35693579991E+02  0.35707158058E+02  0.00000000000E+00 0.  1.
        -15    1    1    2    0    0 -0.31655131333E+00  0.31508451615E+01 -0.93891479062E+01  0.10066869293E+02  0.17770000000E+01 0. -1.
         15    1    1    2    0    0  0.13905558749E+01 -0.21459006468E+01  0.14317504249E+02  0.14652207757E+02  0.17770000000E+01 0. -1.
</event>
<event>
 6    1  0.3691007E-002  0.4650363E+02  0.7546771E-02  0.1313737E+00
        -11   -1    0    0    0    0  0.00000000000E+00  0.00000000000E+00  0.45600000000E+02  0.45600000000E+02  0.00000000000E+00 0.  1.
         11   -1    0    0    0    0 -0.00000000000E+00 -0.00000000000E+00 -0.45600000000E+02  0.45600000000E+02  0.00000000000E+00 0. -1.
        -11    1    1    2    0    0 -0.39035854359E+00 -0.56429568773E+00  0.30268986252E+02  0.30276762345E+02  0.00000000000E+00 0.  1.
         11    1    1    2    0    0 -0.11664042731E+01 -0.12360031617E+00 -0.44680974985E+02  0.44696367879E+02  0.00000000000E+00 0. -1.
        -15    1    1    2    0    0 -0.91564727776E+00 -0.16808744862E+01  0.10139598398E+02  0.10470574657E+02  0.17770000000E+01 0. -1.
         15    1    1    2    0    0  0.24724100945E+01  0.23687704901E+01  0.42723903358E+01  0.57562951185E+01  0.17770000000E+01 0.  1.
</event>
<event>
 6    1  0.3691007E-002  0.4723115E+02  0.7546771E-02  0.1310305E+00
        -11   -1    0    0    0    0  0.00000000000E+00  0.00000000000E+00  0.45600000000E+02  0.45600000000E+02  0.00000000000E+00 0.  1.
         11   -1    0    0    0    0 -0.00000000000E+00 -0.00000000000E+00 -0.45600000000E+02  0.45600000000E+02  0.00000000000E+00 0.  1.
        -11    1    1    2    0    0  0.37462816788E+00 -0.60165814574E+00  0.43963138112E+02  0.43968850922E+02  0.00000000000E+00 0.  1.
         11    1    1    2    0    0 -0.93663579554E+00 -0.42612740537E+00 -0.40129709539E+02  0.40142900479E+02  0.00000000000E+00 0.  1.
        -15    1    1    2    0    0  0.25332517776E+01  0.59495852136E-01 -0.24233373967E+01  0.39308011223E+01  0.17770000000E+01 0. -1.
         15    1    1    2    0    0 -0.19712441500E+01  0.96828969897E+00 -0.14100911764E+01  0.31574474763E+01  0.17770000000E+01 0. -1.
</event>
<event>
 6    1  0.3691007E-002  0.4632389E+02  0.7546771E-02  0.1314596E+00
        -11   -1    0    0    0    0  0.00000000000E+00  0.00000000000E+00  0.45600000000E+02  0.45600000000E+02  0.00000000000E+00 0. -1.
         11   -1    0    0    0    0 -0.00000000000E+00 -0.00000000000E+00 -0.45600000000E+02  0.45600000000E+02  0.00000000000E+00 0.  1.
        -11    1    1    2    0    0 -0.17462248156E+01 -0.81195038130E-01  0.44842046798E+02  0.44876107839E+02  0.00000000000E+00 0. -1.
         11    1    1    2    0    0 -0.40088040253E-01 -0.10027868765E+01 -0.35672117129E+02  0.35686231645E+02  0.00000000000E+00 0.  1.
        -15    1    1    2    0    0  0.11578052862E+01  0.12133055424E+01 -0.81126725108E+01  0.84726505703E+01  0.17770000000E+01 0. -1.
         15    1    1    2    0    0  0.62850756962E+00 -0.12932362780E+00 -0.10572571582E+01  0.21650099456E+01  0.17770000000E+01 0.  1.
</event>
<event>
 6    1  0.3691007E-002  0.4961102E+02  0.7546771E-02  0.1299556E+00
        -11   -1    0    0    0    0  0.00000000000E+00  0.00000000000E+00  0.45600000000E+02  0.45600000000E+02  0.00000000000E+00 0.  1.
         11   -1    0    0    0    0 -0.00000000000E+00 -0.00000000000E+00 -0.45600000000E+02  0.45600000000E+02  0.00000000000E+00 0. -1.
        -11    1    1    2    0    0 -0.81624251528E+00 -0.57942311888E-01  0.36160231622E+02  0.36169489354E+02  0.00000000000E+00 0.  1.
         11    1    1    2    0    0  0.11886831493E+01  0.19725890207E+01 -0.41525165017E+02  0.41588981771E+02  0.00000000000E+00 0. -1.
        -15    1    1    2    0    0  0.54518049871E+01 -0.22271950839E+01  0.19504662255E+01  0.64532645271E+01  0.17770000000E+01 0. -1.
         15    1    1    2    0    0 -0.58242456211E+01  0.31254837517E+00  0.34144671696E+01  0.69882643478E+01  0.17770000000E+01 0.  1.
</event>
<event>
 6    1  0.3691007E-002  0.4749495E+02  0.7546771E-02  0.1309078E+00
        -11   -1    0    0    0    0  0.00000000000E+00  0.00000000000E+00  0.45600000000E+02  0.45600000000E+02  0.00000000000E+00 0.  1.
         11   -1    0    0    0    0 -0.00000000000E+00 -0.00000000000E+00 -0.45600000000E+02  0.45600000000E+02  0.00000000000E+00 0.  1.
        -11    1    1    2    0    0 -0.14406240635E+00  0.96090014839E+00  0.16320892946E+02  0.16349789896E+02  0.00000000000E+00 0.  1.
         11    1    1    2    0    0 -0.10426397816E+01  0.45279724630E+01 -0.43457357345E+02  0.43705051650E+02  0.00000000000E+00 0.  1.
        -15    1    1    2    0    0  0.53340682230E+01 -0.62221103176E+00  0.36331610673E+01  0.67228728023E+01  0.17770000000E+01 0. -1.
         15    1    1    2    0    0 -0.41473660350E+01 -0.48666615796E+01  0.23503303332E+02  0.24422285652E+02  0.17770000000E+01 0.  1.
</event>
<event>
 6    1  0.3691007E-002  0.5331630E+02  0.7546771E-02  0.1284129E+00
        -11   -1    0    0    0    0  0.00000000000E+00  0.00000000000E+00  0.45600000000E+02  0.45600000000E+02  0.00000000000E+00 0.  1.
         11   -1    0    0    0    0 -0.00000000000E+00 -0.00000000000E+00 -0.45600000000E+02  0.45600000000E+02  0.00000000000E+00 0.  1.
        -11    1    1    2    0    0 -0.12347681578E+01 -0.31304557442E+01  0.24817980145E+02  0.25045090219E+02  0.00000000000E+00 0.  1.
         11    1    1    2    0    0 -0.46804560996E+00  0.24620960332E+00 -0.37880006589E+02  0.37883698144E+02  0.00000000000E+00 0.  1.
        -15    1    1    2    0    0  0.11893171465E+02 -0.32085311142E+01  0.97710112504E+01  0.15823166221E+02  0.17770000000E+01 0.  1.
         15    1    1    2    0    0 -0.10190357698E+02  0.60927772551E+01  0.32910151931E+01  0.12448045416E+02  0.17770000000E+01 0. -1.
</event>
<event>
 6    1  0.3691007E-002  0.4643389E+02  0.7546771E-02  0.1314070E+00
        -11   -1    0    0    0    0  0.00000000000E+00  0.00000000000E+00  0.45600000000E+02  0.45600000000E+02  0.00000000000E+00 0. -1.
         11   -1    0    0    0    0 -0.00000000000E+00 -0.00000000000E+00 -0.45600000000E+02  0.45600000000E+02  0.00000000000E+00 0. -1.
        -11    1    1    2    0    0 -0.17212077275E+01  0.19752252475E+00  0.44732569827E+02  0.44766107431E+02  0.00000000000E+00 0. -1.
         11    1    1    2    0    0 -0.15879709262E+00 -0.41066737077E+01 -0.31182199791E+02  0.31451861141E+02  0.00000000000E+00 0. -1.
        -15    1    1    2    0    0  0.22864014116E+01  0.13978149364E+01 -0.80190137007E+01  0.86396659510E+01  0.17770000000E+01 0. -1.
         15    1    1    2    0    0 -0.40639659144E+00  0.25113362465E+01 -0.55313563355E+01  0.63423654769E+01  0.17770000000E+01 0.  1.
</event>
<event>
 6    1  0.3691007E-002  0.4779698E+02  0.7546771E-02  0.1307684E+00
        -11   -1    0    0    0    0  0.00000000000E+00  0.00000000000E+00  0.45600000000E+02  0.45600000000E+02  0.00000000000E+00 0. -1.
         11   -1    0    0    0    0 -0.00000000000E+00 -0.00000000000E+00 -0.45600000000E+02  0.45600000000E+02  0.00000000000E+00 0.  1.
        -11    1    1    2    0    0  0.74630503833E+00  0.14781884406E+01  0.38633355929E+02  0.38668827272E+02  0.00000000000E+00 0. -1.
         11    1    1    2    0    0  0.81562104071E+00 -0.29617151583E+00 -0.43394346011E+02  0.43403020873E+02  0.00000000000E+00 0.  1.
        -15    1    1    2    0    0 -0.71861795166E+00 -0.79168800106E+00  0.62792929549E+01  0.66128988095E+01  0.17770000000E+01 0. -1.
         15    1    1    2    0    0 -0.84330812738E+00 -0.39032892373E+00 -0.15183028730E+01  0.25152530450E+01  0.17770000000E+01 0. -1.
</event>
<event>
 6    1  0.3691007E-002  0.4673801E+02  0.7546771E-02  0.1312624E+00
        -11   -1    0    0    0    0  0.00000000000E+00  0.00000000000E+00  0.45600000000E+02  0.45600000000E+02  0.00000000000E+00 0.  1.
         11   -1    0    0    0    0 -0.00000000000E+00 -0.00000000000E+00 -0.45600000000E+02  0.45600000000E+02  0.00000000000E+00 0.  1.
        -11    1    1    2    0    0  0.61500849626E+00  0.32373686085E+00  0.52954874980E+01  0.53409015014E+01  0.00000000000E+00 0.  1.
         11    1    1    2    0    0 -0.13244311226E+01  0.24930790121E+01 -0.44372274577E+02  0.44461987268E+02  0.00000000000E+00 0.  1.
        -15    1    1    2    0    0 -0.78598076637E+00 -0.21255992950E+01  0.72616754574E+00  0.29700145509E+01  0.17770000000E+01 0. -1.
         15    1    1    2    0    0  0.14954033927E+01 -0.69121657803E+00  0.38350619533E+02  0.38427096679E+02  0.17770000000E+01 0.  1.
</event>
<event>
 6    1  0.3691007E-002  0.4984707E+02  0.7546771E-02  0.1298528E+00
        -11   -1    0    0    0    0  0.00000000000E+00  0.00000000000E+00  0.45600000000E+02  0.45600000000E+02  0.00000000000E+00 0.  1.
         11   -1    0    0    0    0 -0.00000000000E+00 -0.00000000000E+00 -0.45600000000E+02  0.45600000000E+02  0.00000000000E+00 0. -1.
        -11    1    1    2    0    0  0.26793810825E+01 -0.14379080533E+01  0.41240977925E+02  0.41352931248E+02  0.00000000000E+00 0.  1.
         11    1    1    2    0    0 -0.11392310377E+01  0.40308172218E+00 -0.33073096092E+02  0.33095165921E+02  0.00000000000E+00 0. -1.
        -15    1    1    2    0    0  0.10013718807E+01 -0.59842117837E+01 -0.61440237918E+01  0.88159113919E+01  0.17770000000E+01 0. -1.
         15    1    1    2    0    0 -0.25415219255E+01  0.70190381148E+01 -0.20238580409E+01  0.79359914393E+01  0.17770000000E+01 0.  1.
</event>
<event>
 6    1  0.3691007E-002  0.4654947E+02  0.7546771E-02  0.1313519E+00
        -11   -1    0    0    0    0  0.00000000000E+00  0.00000000000E+00  0.45600000000E+02  0.45600000000E+02  0.00000000000E+00 0.  1.
         11   -1    0    0    0    0 -0.00000000000E+00 -0.00000000000E+00 -0.45600000000E+02  0.45600000000E+02  0.00000000000E+00 0. -1.
        -11    1    1    2    0    0  0.16258845849E-02 -0.71883475315E+00  0.44644741558E+02  0.44650528271E+02  0.00000000000E+00 0.  1.
         11    1    1    2    0    0  0.55050034737E+00 -0.69059305658E+00 -0.36889646869E+02  0.36900217012E+02  0.00000000000E+00 0. -1.
        -15    1    1    2    0    0  0.11095791298E+01 -0.30765265453E+00 -0.11630445712E+01  0.24158264995E+01  0.17770000000E+01 0. -1.
         15    1    1    2    0    0 -0.16617053617E+01  0.17170804643E+01 -0.65920501176E+01  0.72334282179E+01  0.17770000000E+01 0. -1.
</event>
<event>
 6    1  0.3691007E-002  0.4586238E+02  0.7546771E-02  0.1316823E+00
        -11   -1    0    0    0    0  0.00000000000E+00  0.00000000000E+00  0.45600000000E+02  0.45600000000E+02  0.00000000000E+00 0. -1.
         11   -1    0    0    0    0 -0.00000000000E+00 -0.00000000000E+00 -0.45600000000E+02  0.45600000000E+02  0.00000000000E+00 0.  1.
        -11    1    1    2    0    0  0.19477122678E+01 -0.79161311032E-02  0.45295767809E+02  0.45337624851E+02  0.00000000000E+00 0. -1.
         11    1    1    2    0    0  0.37553864454E+00 -0.49003404287E+00 -0.19613681335E+02  0.19623395684E+02  0.00000000000E+00 0.  1.
        -15    1    1    2    0    0  0.30010607281E+00 -0.51765313151E+00 -0.62906349806E+01  0.65641332923E+01  0.17770000000E+01 0.  1.
         15    1    1    2    0    0 -0.26233569852E+01  0.10156033055E+01 -0.19391451492E+02  0.19674846173E+02  0.17770000000E+01 0.  1.
</event>
<event>
 6    1  0.3691007E-002  0.3302366E+02  0.7546771E-02  0.1394407E+00
        -11   -1    0    0    0    0  0.00000000000E+00  0.00000000000E+00  0.45600000000E+02  0.45600000000E+02  0.00000000000E+00 0.  1.
         11   -1    0    0    0    0 -0.00000000000E+00 -0.00000000000E+00 -0.45600000000E+02  0.45600000000E+02  0.00000000000E+00 0.  1.
        -11    1    1    2    0    0  0.34172025946E+01 -0.48220205940E+00  0.20191729194E+01  0.39983561218E+01  0.00000000000E+00 0.  1.
         11    1    1    2    0    0  0.53085065638E+01 -0.77981875159E+01 -0.16050217921E+02  0.18617235718E+02  0.00000000000E+00 0.  1.
        -15    1    1    2    0    0  0.72166063945E+01  0.18326334479E+02  0.35084302134E+02  0.40274060244E+02  0.17770000000E+01 0.  1.
         15    1    1    2    0    0 -0.15942315553E+02 -0.10045944904E+02 -0.21053257132E+02  0.28310347915E+02  0.17770000000E+01 0. -1.
</event>
<event>
 6    1  0.3691007E-002  0.4663666E+02  0.7546771E-02  0.1313104E+00
        -11   -1    0    0    0    0  0.00000000000E+00  0.00000000000E+00  0.45600000000E+02  0.45600000000E+02  0.00000000000E+00 0. -1.
         11   -1    0    0    0    0 -0.00000000000E+00 -0.00000000000E+00 -0.45600000000E+02  0.45600000000E+02  0.00000000000E+00 0.  1.
        -11    1    1    2    0    0  0.37225026835E+01  0.13601043398E+01  0.20214363860E+02  0.20599209118E+02  0.00000000000E+00 0. -1.
         11    1    1    2    0    0  0.10187662081E+01  0.14287974335E-02 -0.44551694940E+02  0.44563341534E+02  0.00000000000E+00 0.  1.
        -15    1    1    2    0    0 -0.26980449215E+01  0.14266233076E+01  0.40168228610E+01  0.53485788166E+01  0.17770000000E+01 0. -1.
         15    1    1    2    0    0 -0.20432239700E+01 -0.27881564448E+01  0.20320508219E+02  0.20688870531E+02  0.17770000000E+01 0. -1.
</event>
<event>
 6    1  0.3691007E-002  0.4771229E+02  0.7546771E-02  0.1308074E+00
        -11   -1    0    0    0    0  0.00000000000E+00  0.00000000000E+00  0.45600000000E+02  0.45600000000E+02  0.00000000000E+00 0. -1.
         11   -1    0    0    0    0 -0.00000000000E+00 -0.00000000000E+00 -0.45600000000E+02  0.45600000000E+02  0.00000000000E+00 0.  1.
        -11    1    1    2    0    0  0.49842928508E+00  0.30945636050E+00  0.43483753412E+02  0.43487710974E+02  0.00000000000E+00 0. -1.
         11    1    1    2    0    0 -0.44004000650E+00  0.79721147771E+00 -0.42181527150E+02  0.42191354731E+02  0.00000000000E+00 0.  1.
        -15    1    1    2    0    0 -0.70489570202E+00 -0.21152526214E+01  0.26865676860E+00  0.28637522697E+01  0.17770000000E+01 0.  1.
         15    1    1    2    0    0  0.64650642345E+00  0.10085847832E+01 -0.15708830299E+01  0.26571820250E+01  0.17770000000E+01 0.  1.
</event>
<event>
 6    1  0.3691007E-002  0.4648706E+02  0.7546771E-02  0.1313816E+00
        -11   -1    0    0    0    0  0.00000000000E+00  0.00000000000E+00  0.45600000000E+02  0.45600000000E+02  0.00000000000E+00 0.  1.
         11   -1    0    0    0    0 -0.00000000000E+00 -0.00000000000E+00 -0.45600000000E+02  0.45600000000E+02  0.00000000000E+00 0.  1.
        -11    1    1    2    0    0 -0.16318686626E+01  0.15122023869E+01  0.39827043853E+02  0.39889136033E+02  0.00000000000E+00 0.  1.
         11    1    1    2    0    0  0.82398899384E+00  0.80257375006E+00 -0.44698137317E+02  0.44712935064E+02  0.00000000000E+00 0.  1.
        -15    1    1    2    0    0  0.85668543706E+00 -0.10275310586E+01  0.20615469511E+01  0.30327272950E+01  0.17770000000E+01 0. -1.
         15    1    1    2    0    0 -0.48805768310E-01 -0.12872450784E+01  0.28095465126E+01  0.35652016074E+01  0.17770000000E+01 0.  1.
</event>
<event>
 6    1  0.3691007E-002  0.4659268E+02  0.7546771E-02  0.1313313E+00
        -11   -1    0    0    0    0  0.00000000000E+00  0.00000000000E+00  0.45600000000E+02  0.45600000000E+02  0.00000000000E+00 0. -1.
         11   -1    0    0    0    0 -0.00000000000E+00 -0.00000000000E+00 -0.45600000000E+02  0.45600000000E+02  0.00000000000E+00 0. -1.
        -11    1    1    2    0    0  0.11994402115E+01 -0.12336418615E+01  0.44574126844E+02  0.44607323535E+02  0.00000000000E+00 0. -1.
         11    1    1    2    0    0  0.97603446927E+00 -0.24881960517E+00 -0.31234057528E+02  0.31250294465E+02  0.00000000000E+00 0. -1.
        -15    1    1    2    0    0 -0.16117295274E+01  0.21969323459E+00 -0.70766485278E+00  0.25108675255E+01  0.17770000000E+01 0.  1.
         15    1    1    2    0    0 -0.56374515342E+00  0.12627682321E+01 -0.12632404463E+02  0.12831514475E+02  0.17770000000E+01 0. -1.
</event>
<event>
 6    1  0.3691007E-002  0.5070663E+02  0.7546771E-02  0.1294837E+00
        -11   -1    0    0    0    0  0.00000000000E+00  0.00000000000E+00  0.45600000000E+02  0.45600000000E+02  0.00000000000E+00 0. -1.
         11   -1    0    0    0    0 -0.00000000000E+00 -0.00000000000E+00 -0.45600000000E+02  0.45600000000E+02  0.00000000000E+00 0.  1.
        -11    1    1    2    0    0 -0.72848744059E+01 -0.13255512532E+01  0.39810630583E+02  0.40493367218E+02  0.00000000000E+00 0. -1.
         11    1    1    2    0    0 -0.24099734535E-02  0.50579686199E+00 -0.31349147187E+02  0.31353227356E+02  0.00000000000E+00 0.  1.
        -15    1    1    2    0    0  0.70497198956E+01  0.34424698209E+00 -0.12749878171E+02  0.14681082350E+02  0.17770000000E+01 0.  1.
         15    1    1    2    0    0  0.23756448378E+00  0.47550740916E+00  0.42883947756E+01  0.46723230765E+01  0.17770000000E+01 0. -1.
</event>
<event>
 6    1  0.3691007E-002  0.4785996E+02  0.7546771E-02  0.1307395E+00
        -11   -1    0    0    0    0  0.00000000000E+00  0.00000000000E+00  0.45600000000E+02  0.45600000000E+02  0.00000000000E+00 0.  1.
         11   -1    0    0    0    0 -0.00000000000E+00 -0.00000000000E+00 -0.45600000000E+02  0.45600000000E+02  0.00000000000E+00 0. -1.
        -11    1    1    2    0    0 -0.74174452702E+00  0.95560368187E+00  0.43323149897E+02  0.43340035537E+02  0.00000000000E+00 0.  1.
         11    1    1    2    0    0 -0.10335289132E+01 -0.20723984938E+01 -0.41742768706E+02  0.41806958234E+02  0.00000000000E+00 0. -1.
        -15    1    1    2    0    0 -0.10211846254E+01  0.13193826594E+01 -0.16098029340E+00  0.24427919060E+01  0.17770000000E+01 0.  1.
         15    1    1    2    0    0  0.27964580657E+01 -0.20258784746E+00 -0.14194008977E+01  0.36102143229E+01  0.17770000000E+01 0. -1.
</event>
<event>
 6    1  0.3691007E-002  0.4712472E+02  0.7546771E-02  0.1310803E+00
        -11   -1    0    0    0    0  0.00000000000E+00  0.00000000000E+00  0.45600000000E+02  0.45600000000E+02  0.00000000000E+00 0. -1.
         11   -1    0    0    0    0 -0.00000000000E+00 -0.00000000000E+00 -0.45600000000E+02  0.45600000000E+02  0.00000000000E+00 0. -1.
        -11    1    1    2    0    0 -0.13583212197E+01 -0.26903371279E+01  0.33560973839E+02  0.33696022249E+02  0.00000000000E+00 0. -1.
         11    1    1    2    0    0  0.42724627194E+01 -0.10713087486E+01 -0.43854630470E+02  0.44075279395E+02  0.00000000000E+00 0. -1.
        -15    1    1    2    0    0  0.59011220232E+00  0.23590659450E+01  0.88908840360E+00  0.31403235078E+01  0.17770000000E+01 0.  1.
         15    1    1    2    0    0 -0.35042537021E+01  0.14025799316E+01  0.94045682275E+01  0.10288374848E+02  0.17770000000E+01 0. -1.
</event>
<event>
 6    1  0.5110904E-002  0.4641336E+02  0.7546771E-02  0.1314168E+00
        -11   -1    0    0    0    0  0.00000000000E+00  0.00000000000E+00  0.45600000000E+02  0.45600000000E+02  0.00000000000E+00 0. -1.
         11   -1    0    0    0    0 -0.00000000000E+00 -0.00000000000E+00 -0.45600000000E+02  0.45600000000E+02  0.00000000000E+00 0. -1.
        -11    1    1    2    0    0 -0.21382288990E+01  0.57498748468E+00  0.44731877747E+02  0.44786644440E+02  0.00000000000E+00 0. -1.
         11    1    1    2    0    0 -0.82650410759E-01 -0.70159923104E+00 -0.12611269844E+02  0.12631041115E+02  0.00000000000E+00 0. -1.
        -15    1    1    2    0    0  0.31413809564E+00  0.97808917096E+00 -0.30556977369E+02  0.30625837721E+02  0.17770000000E+01 0. -1.
         15    1    1    2    0    0  0.19067412141E+01 -0.85147742461E+00 -0.15636305337E+01  0.31564767238E+01  0.17770000000E+01 0.  1.
</event>
<event>
 6    1  0.3691007E-002  0.4872706E+02  0.7546771E-02  0.1303466E+00
        -11   -1    0    0    0    0  0.00000000000E+00  0.00000000000E+00  0.45600000000E+02  0.45600000000E+02  0.00000000000E+00 0. -1.
         11   -1    0    0    0    0 -0.00000000000E+00 -0.00000000000E+00 -0.45600000000E+02  0.45600000000E+02  0.00000000000E+00 0.  1.
        -11    1    1    2    0    0  0.12546177301E+01  0.16223922036E+01  0.38552402372E+02  0.38606915841E+02  0.00000000000E+00 0. -1.
         11    1    1    2    0    0 -0.87980653965E+00 -0.49080869921E-01 -0.42463800129E+02  0.42472941856E+02  0.00000000000E+00 0.  1.
        -15    1    1    2    0    0  0.13611674610E+01  0.32259272798E+01  0.17765283562E+01  0.43096595772E+01  0.17770000000E+01 0. -1.
         15    1    1    2    0    0 -0.17359786515E+01 -0.47992386134E+01  0.21348694013E+01  0.58104827259E+01  0.17770000000E+01 0.  1.
</event>
<event>
 6    1  0.3691007E-002  0.4808856E+02  0.7546771E-02  0.1306350E+00
        -11   -1    0    0    0    0  0.00000000000E+00  0.00000000000E+00  0.45600000000E+02  0.45600000000E+02  0.00000000000E+00 0. -1.
         11   -1    0    0    0    0 -0.00000000000E+00 -0.00000000000E+00 -0.45600000000E+02  0.45600000000E+02  0.00000000000E+00 0. -1.
        -11    1    1    2    0    0  0.20563767312E+01 -0.28607104094E+01  0.34413480469E+02  0.34593351779E+02  0.00000000000E+00 0. -1.
         11    1    1    2    0    0  0.14884586425E+01  0.16123025144E+01 -0.43055561563E+02  0.43111441753E+02  0.00000000000E+00 0. -1.
        -15    1    1    2    0    0 -0.20225431771E+01  0.29952087590E+01 -0.34841121099E+00  0.40424096508E+01  0.17770000000E+01 0.  1.
         15    1    1    2    0    0 -0.15222921967E+01 -0.17468008640E+01  0.89904923047E+01  0.94527968174E+01  0.17770000000E+01 0. -1.
</event>
<event>
 6    1  0.3691007E-002  0.4626581E+02  0.7546771E-02  0.1314875E+00
        -11   -1    0    0    0    0  0.00000000000E+00  0.00000000000E+00  0.45600000000E+02  0.45600000000E+02  0.00000000000E+00 0.  1.
         11   -1    0    0    0    0 -0.00000000000E+00 -0.00000000000E+00 -0.45600000000E+02  0.45600000000E+02  0.00000000000E+00 0.  1.
        -11    1    1    2    0    0  0.30424224937E+00  0.14666217333E+01  0.44909219844E+02  0.44934191544E+02  0.00000000000E+00 0.  1.
         11    1    1    2    0    0 -0.60570132097E+00 -0.12254924783E+00 -0.20997251027E+02  0.21006342925E+02  0.00000000000E+00 0.  1.
        -15    1    1    2    0    0  0.27671684412E-01 -0.40190225783E+01 -0.91606375664E+01  0.10160133751E+02  0.17770000000E+01 0.  1.
         15    1    1    2    0    0  0.27378738719E+00  0.26749500928E+01 -0.14751331251E+02  0.15099331781E+02  0.17770000000E+01 0.  1.
</event>
<event>
 6    1  0.3691007E-002  0.4635275E+02  0.7546771E-02  0.1314458E+00
        -11   -1    0    0    0    0  0.00000000000E+00  0.00000000000E+00  0.45600000000E+02  0.45600000000E+02  0.00000000000E+00 0.  1.
         11   -1    0    0    0    0 -0.00000000000E+00 -0.00000000000E+00 -0.45600000000E+02  0.45600000000E+02  0.00000000000E+00 0. -1.
        -11    1    1    2    0    0  0.18976031797E+00  0.49327183571E+00  0.38188387423E+02  0.38192044460E+02  0.00000000000E+00 0.  1.
         11    1    1    2    0    0  0.26043885159E+00 -0.95037920459E+00 -0.44836421894E+02  0.44847249384E+02  0.00000000000E+00 0. -1.
        -15    1    1    2    0    0  0.53298497971E+00  0.10537651865E+01  0.15395298882E+01  0.26310407320E+01  0.17770000000E+01 0. -1.
         15    1    1    2    0    0 -0.98318414926E+00 -0.59665781762E+00  0.51085045833E+01  0.55296654239E+01  0.17770000000E+01 0.  1.
</event>
<event>
 6    1  0.3691007E-002  0.4777153E+02  0.7546771E-02  0.1307801E+00
        -11   -1    0    0    0    0  0.00000000000E+00  0.00000000000E+00  0.45600000000E+02  0.45600000000E+02  0.00000000000E+00 0. -1.
         11   -1    0    0    0    0 -0.00000000000E+00 -0.00000000000E+00 -0.45600000000E+02  0.45600000000E+02  0.00000000000E+00 0.  1.
        -11    1    1    2    0    0  0.19308209350E+00  0.60438191713E+00  0.35932838252E+02  0.35938439352E+02  0.00000000000E+00 0. -1.
         11    1    1    2    0    0 -0.18769345630E+01  0.76162626562E+00 -0.43381201564E+02  0.43428465400E+02  0.00000000000E+00 0.  1.
        -15    1    1    2    0    0  0.53436670259E+00 -0.13477573426E+01 -0.14321611353E+01  0.27038513540E+01  0.17770000000E+01 0.  1.
         15    1    1    2    0    0  0.11494857669E+01 -0.18250840200E-01  0.88805244465E+01  0.91292438935E+01  0.17770000000E+01 0. -1.
</event>
<event>
 6    1  0.3691007E-002  0.4606580E+02  0.7546771E-02  0.1315838E+00
        -11   -1    0    0    0    0  0.00000000000E+00  0.00000000000E+00  0.45600000000E+02  0.45600000000E+02  0.00000000000E+00 0. -1.
         11   -1    0    0    0    0 -0.00000000000E+00 -0.00000000000E+00 -0.45600000000E+02  0.45600000000E+02  0.00000000000E+00 0.  1.
        -11    1    1    2    0    0 -0.18633870845E+01  0.44496674172E+01  0.44875657980E+02  0.45134204665E+02  0.00000000000E+00 0. -1.
         11    1    1    2    0    0 -0.10577158884E+00  0.50621531657E+00 -0.22952246602E+02  0.22958071906E+02  0.00000000000E+00 0.  1.
        -15    1    1    2    0    0 -0.51209341487E+00 -0.52470727723E+00 -0.57749995718E+01  0.60865348472E+01  0.17770000000E+01 0.  1.
         15    1    1    2    0    0  0.24812520882E+01 -0.44311754565E+01 -0.16148411807E+02  0.17021188582E+02  0.17770000000E+01 0.  1.
</event>
<event>
 6    1  0.3691007E-002  0.4597593E+02  0.7546771E-02  0.1316272E+00
        -11   -1    0    0    0    0  0.00000000000E+00  0.00000000000E+00  0.45600000000E+02  0.45600000000E+02  0.00000000000E+00 0.  1.
         11   -1    0    0    0    0 -0.00000000000E+00 -0.00000000000E+00 -0.45600000000E+02  0.45600000000E+02  0.00000000000E+00 0.  1.
        -11    1    1    2    0    0 -0.21129412181E+00 -0.54587503978E+00  0.32163677851E+02  0.32169003679E+02  0.00000000000E+00 0.  1.
         11    1    1    2    0    0 -0.63238627168E+00 -0.23928179155E+00 -0.45219018885E+02  0.45224073646E+02  0.00000000000E+00 0.  1.
        -15    1    1    2    0    0  0.43361076777E+00 -0.50597216932E+00  0.33746102303E+01  0.38716597656E+01  0.17770000000E+01 0. -1.
         15    1    1    2    0    0  0.41006962572E+00  0.12911290006E+01  0.96807308038E+01  0.99352629100E+01  0.17770000000E+01 0.  1.
</event>
<event>
 6    1  0.3691007E-002  0.4638909E+02  0.7546771E-02  0.1314284E+00
        -11   -1    0    0    0    0  0.00000000000E+00  0.00000000000E+00  0.45600000000E+02  0.45600000000E+02  0.00000000000E+00 0. -1.
         11   -1    0    0    0    0 -0.00000000000E+00 -0.00000000000E+00 -0.45600000000E+02  0.45600000000E+02  0.00000000000E+00 0. -1.
        -11    1    1    2    0    0  0.12498150558E+01  0.47402344280E+00  0.34738791474E+02  0.34764498687E+02  0.00000000000E+00 0. -1.
         11    1    1    2    0    0  0.10038804548E+01  0.16787740910E+00 -0.44799345124E+02  0.44810905841E+02  0.00000000000E+00 0. -1.
        -15    1    1    2    0    0 -0.12892040939E+00 -0.55162567675E+00  0.78813987014E+01  0.80990793212E+01  0.17770000000E+01 0. -1.
         15    1    1    2    0    0 -0.21247751012E+01 -0.90275175142E-01  0.21791549484E+01  0.35255161505E+01  0.17770000000E+01 0. -1.
</event>
<event>
 6    1  0.3691007E-002  0.4609587E+02  0.7546771E-02  0.1315693E+00
        -11   -1    0    0    0    0  0.00000000000E+00  0.00000000000E+00  0.45600000000E+02  0.45600000000E+02  0.00000000000E+00 0.  1.
         11   -1    0    0    0    0 -0.00000000000E+00 -0.00000000000E+00 -0.45600000000E+02  0.45600000000E+02  0.00000000000E+00 0. -1.
        -11    1    1    2    0    0 -0.20532985312E+00  0.84414488360E+00  0.26972691645E+02  0.26986678853E+02  0.00000000000E+00 0.  1.
         11    1    1    2    0    0 -0.93404112711E+00  0.10558748770E+01 -0.45082091678E+02  0.45104127246E+02  0.00000000000E+00 0. -1.
        -15    1    1    2    0    0  0.23478048104E+01 -0.20047734132E+01  0.77602232975E+01  0.85387410368E+01  0.17770000000E+01 0.  1.
         15    1    1    2    0    0 -0.12084338302E+01  0.10475365261E+00  0.10349176735E+02  0.10570452864E+02  0.17770000000E+01 0.  1.
</event>
<event>
 6    1  0.3691007E-002  0.4672291E+02  0.7546771E-02  0.1312695E+00
        -11   -1    0    0    0    0  0.00000000000E+00  0.00000000000E+00  0.45600000000E+02  0.45600000000E+02  0.00000000000E+00 0. -1.
         11   -1    0    0    0    0 -0.00000000000E+00 -0.00000000000E+00 -0.45600000000E+02  0.45600000000E+02  0.00000000000E+00 0.  1.
        -11    1    1    2    0    0 -0.79564200805E+00  0.35148599402E+00  0.44468586561E+02  0.44477092749E+02  0.00000000000E+00 0. -1.
         11    1    1    2    0    0  0.50690056127E+00 -0.32358225766E-01 -0.32899708478E+02  0.32903629180E+02  0.00000000000E+00 0.  1.
        -15    1    1    2    0    0 -0.23220015650E+01 -0.11083205031E+01 -0.19999710473E+01  0.37118295752E+01  0.17770000000E+01 0.  1.
         15    1    1    2    0    0  0.26107430118E+01  0.78919273488E+00 -0.95689070360E+01  0.10107448497E+02  0.17770000000E+01 0. -1.
</event>
<event>
 6    1  0.3691007E-002  0.4723432E+02  0.7546771E-02  0.1310290E+00
        -11   -1    0    0    0    0  0.00000000000E+00  0.00000000000E+00  0.45600000000E+02  0.45600000000E+02  0.00000000000E+00 0.  1.
         11   -1    0    0    0    0 -0.00000000000E+00 -0.00000000000E+00 -0.45600000000E+02  0.45600000000E+02  0.00000000000E+00 0. -1.
        -11    1    1    2    0    0 -0.17472411678E+01  0.35284010670E+00  0.43929528153E+02  0.43965677427E+02  0.00000000000E+00 0.  1.
         11    1    1    2    0    0 -0.25253561736E+01 -0.71798712815E+00 -0.34869702620E+02  0.34968401309E+02  0.00000000000E+00 0. -1.
        -15    1    1    2    0    0 -0.10091720547E+01 -0.89272508141E+00 -0.42431435384E+01  0.47934728950E+01  0.17770000000E+01 0. -1.
         15    1    1    2    0    0  0.52817693960E+01  0.12578721029E+01 -0.48166819950E+01  0.74724483686E+01  0.17770000000E+01 0.  1.
</event>
<event>
 6    1  0.3691007E-002  0.4695364E+02  0.7546771E-02  0.1311606E+00
        -11   -1    0    0    0    0  0.00000000000E+00  0.00000000000E+00  0.45600000000E+02  0.45600000000E+02  0.00000000000E+00 0.  1.
         11   -1    0    0    0    0 -0.00000000000E+00 -0.00000000000E+00 -0.45600000000E+02  0.45600000000E+02  0.00000000000E+00 0. -1.
        -11    1    1    2    0    0  0.73874829471E+00  0.13266761201E+01  0.30104675522E+02  0.30142947879E+02  0.00000000000E+00 0.  1.
         11    1    1    2    0    0  0.15799879476E+01 -0.25262639876E+00 -0.44217416571E+02  0.44246357028E+02  0.00000000000E+00 0. -1.
        -15    1    1    2    0    0  0.89076172341E+00 -0.75587623065E+00  0.12683720537E+02  0.12860765956E+02  0.17770000000E+01 0.  1.
         15    1    1    2    0    0 -0.32094979658E+01 -0.31817349074E+00  0.14290205123E+01  0.39499291370E+01  0.17770000000E+01 0.  1.
</event>
<event>
 6    1  0.3691007E-002  0.4840777E+02  0.7546771E-02  0.1304902E+00
        -11   -1    0    0    0    0  0.00000000000E+00  0.00000000000E+00  0.45600000000E+02  0.45600000000E+02  0.00000000000E+00 0. -1.
         11   -1    0    0    0    0 -0.00000000000E+00 -0.00000000000E+00 -0.45600000000E+02  0.45600000000E+02  0.00000000000E+00 0. -1.
        -11    1    1    2    0    0  0.68219186040E+00  0.25260359839E+01  0.28605479991E+02  0.28724897372E+02  0.00000000000E+00 0. -1.
         11    1    1    2    0    0  0.70393648051E+00 -0.75147330510E+00 -0.42779841826E+02  0.42792231834E+02  0.00000000000E+00 0. -1.
        -15    1    1    2    0    0 -0.59329686666E+01 -0.43612570368E+01  0.10858269517E+02  0.13239351421E+02  0.17770000000E+01 0. -1.
         15    1    1    2    0    0  0.45468403256E+01  0.25866943580E+01  0.33160923189E+01  0.64435193734E+01  0.17770000000E+01 0. -1.
</event>
<event>
 6    1  0.3691007E-002  0.4612734E+02  0.7546771E-02  0.1315541E+00
        -11   -1    0    0    0    0  0.00000000000E+00  0.00000000000E+00  0.45600000000E+02  0.45600000000E+02  0.00000000000E+00 0.  1.
         11   -1    0    0    0    0 -0.00000000000E+00 -0.00000000000E+00 -0.45600000000E+02  0.45600000000E+02  0.00000000000E+00 0. -1.
        -11    1    1    2    0    0 -0.24118003660E+00 -0.25432063921E+01  0.31886026853E+02  0.31988197434E+02  0.00000000000E+00 0.  1.
         11    1    1    2    0    0 -0.20042605629E+01  0.91002786685E+00 -0.45018882231E+02  0.45072663205E+02  0.00000000000E+00 0. -1.
        -15    1    1    2    0    0  0.18604195678E+01  0.21449680965E+01  0.83442147402E+01  0.89914235655E+01  0.17770000000E+01 0. -1.
         15    1    1    2    0    0  0.38502103172E+00 -0.51178957127E+00  0.47886406373E+01  0.51477157957E+01  0.17770000000E+01 0.  1.
</event>
<event>
 6    1  0.8569525E-002  0.5014728E+02  0.7546771E-02  0.1297229E+00
        -11   -1    0    0    0    0  0.00000000000E+00  0.00000000000E+00  0.45600000000E+02  0.45600000000E+02  0.00000000000E+00 0.  1.
         11   -1    0    0    0    0 -0.00000000000E+00 -0.00000000000E+00 -0.45600000000E+02  0.45600000000E+02  0.00000000000E+00 0.  1.
        -11    1    1    2    0    0  0.12692303472E+01  0.51121023133E+00  0.27852338070E+02  0.27885928666E+02  0.00000000000E+00 0.  1.
         11    1    1    2    0    0  0.68791457230E+01 -0.56241943256E+01 -0.40079565885E+02  0.41052719876E+02  0.00000000000E+00 0.  1.
        -15    1    1    2    0    0 -0.45155114037E+00 -0.21469346630E+01  0.11123284723E+02  0.11475993155E+02  0.17770000000E+01 0.  1.
         15    1    1    2    0    0 -0.76968249298E+01  0.72599187572E+01  0.11039430925E+01  0.10785358302E+02  0.17770000000E+01 0.  1.
</event>
<event>
 6    1  0.3691007E-002  0.4786466E+02  0.7546771E-02  0.1307374E+00
        -11   -1    0    0    0    0  0.00000000000E+00  0.00000000000E+00  0.45600000000E+02  0.45600000000E+02  0.00000000000E+00 0.  1.
         11   -1    0    0    0    0 -0.00000000000E+00 -0.00000000000E+00 -0.45600000000E+02  0.45600000000E+02  0.00000000000E+00 0.  1.
        -11    1    1    2    0    0  0.18497067615E+00 -0.73866953547E+00  0.41118041390E+02  0.41125091788E+02  0.00000000000E+00 0.  1.
         11    1    1    2    0    0  0.87381361546E+00  0.22048641361E+01 -0.43270387462E+02  0.43335336704E+02  0.00000000000E+00 0.  1.
        -15    1    1    2    0    0 -0.14265224936E+01 -0.49309828214E+00 -0.13372482836E+01  0.26877638126E+01  0.17770000000E+01 0. -1.
         15    1    1    2    0    0  0.36773820200E+00 -0.97309631845E+00  0.34895943565E+01  0.40518076957E+01  0.17770000000E+01 0.  1.
</event>
<event>
 6    1  0.3691007E-002  0.4642296E+02  0.7546771E-02  0.1314122E+00
        -11   -1    0    0    0    0  0.00000000000E+00  0.00000000000E+00  0.45600000000E+02  0.45600000000E+02  0.00000000000E+00 0.  1.
         11   -1    0    0    0    0 -0.00000000000E+00 -0.00000000000E+00 -0.45600000000E+02  0.45600000000E+02  0.00000000000E+00 0. -1.
        -11    1    1    2    0    0 -0.10152938905E+01  0.74146636475E+00  0.31606745102E+02  0.31631739282E+02  0.00000000000E+00 0.  1.
         11    1    1    2    0    0 -0.32861440996E+00  0.20601600437E+01 -0.44728413277E+02  0.44777038771E+02  0.00000000000E+00 0. -1.
        -15    1    1    2    0    0  0.75762468498E+00 -0.40813871989E+01  0.79152580712E+01  0.91126700788E+01  0.17770000000E+01 0. -1.
         15    1    1    2    0    0  0.58628361550E+00  0.12797607905E+01  0.52064101035E+01  0.56785518686E+01  0.17770000000E+01 0.  1.
</event>
<event>
 6    1  0.3691007E-002  0.4799508E+02  0.7546771E-02  0.1306777E+00
        -11   -1    0    0    0    0  0.00000000000E+00  0.00000000000E+00  0.45600000000E+02  0.45600000000E+02  0.00000000000E+00 0. -1.
         11   -1    0    0    0    0 -0.00000000000E+00 -0.00000000000E+00 -0.45600000000E+02  0.45600000000E+02  0.00000000000E+00 0. -1.
        -11    1    1    2    0    0  0.49573754979E-01  0.12219707795E+01  0.23300223460E+02  0.23332297003E+02  0.00000000000E+00 0. -1.
         11    1    1    2    0    0  0.38932610278E+01  0.30060062299E+01 -0.42924023472E+02  0.43204922705E+02  0.00000000000E+00 0. -1.
        -15    1    1    2    0    0 -0.36163128325E+01 -0.28979754928E+01  0.21294687883E+02  0.21865439431E+02  0.17770000000E+01 0. -1.
         15    1    1    2    0    0 -0.32652195031E+00 -0.13300015167E+01 -0.16708878710E+01  0.27973408616E+01  0.17770000000E+01 0.  1.
</event>
<event>
 6    1  0.3691007E-002  0.5295500E+02  0.7546771E-02  0.1285569E+00
        -11   -1    0    0    0    0  0.00000000000E+00  0.00000000000E+00  0.45600000000E+02  0.45600000000E+02  0.00000000000E+00 0. -1.
         11   -1    0    0    0    0 -0.00000000000E+00 -0.00000000000E+00 -0.45600000000E+02  0.45600000000E+02  0.00000000000E+00 0.  1.
        -11    1    1    2    0    0 -0.26569867192E+01 -0.13055760914E+01  0.38130248755E+02  0.38244999379E+02  0.00000000000E+00 0. -1.
         11    1    1    2    0    0  0.62842174755E+00 -0.16073482645E+00 -0.21482152396E+02  0.21491943168E+02  0.00000000000E+00 0.  1.
        -15    1    1    2    0    0  0.38500759513E+01  0.10440512297E+02  0.11918288679E+01  0.11331618018E+02  0.17770000000E+01 0. -1.
         15    1    1    2    0    0 -0.18215109797E+01 -0.89742013789E+01 -0.17839925227E+02  0.20131439436E+02  0.17770000000E+01 0.  1.
</event>
<event>
 6    1  0.3691007E-002  0.3749098E+02  0.7546771E-02  0.1363347E+00
        -11   -1    0    0    0    0  0.00000000000E+00  0.00000000000E+00  0.45600000000E+02  0.45600000000E+02  0.00000000000E+00 0.  1.
         11   -1    0    0    0    0 -0.00000000000E+00 -0.00000000000E+00 -0.45600000000E+02  0.45600000000E+02  0.00000000000E+00 0. -1.
        -11    1    1    2    0    0 -0.14130730399E+01 -0.63700335517E+00  0.53249503347E+01  0.55459575149E+01  0.00000000000E+00 0.  1.
         11    1    1    2    0    0  0.22195612384E+01  0.11956653117E+01 -0.38617151511E+02  0.38699359923E+02  0.00000000000E+00 0. -1.
        -15    1    1    2    0    0  0.64946783525E+01 -0.71610696015E+01 -0.22060487638E+01  0.10074033199E+02  0.17770000000E+01 0. -1.
         15    1    1    2    0    0 -0.73011665510E+01  0.66024076450E+01  0.35498249940E+02  0.36880649364E+02  0.17770000000E+01 0.  1.
</event>
<event>
 6    1  0.3691007E-002  0.4710915E+02  0.7546771E-02  0.1310876E+00
        -11   -1    0    0    0    0  0.00000000000E+00  0.00000000000E+00  0.45600000000E+02  0.45600000000E+02  0.00000000000E+00 0. -1.
         11   -1    0    0    0    0 -0.00000000000E+00 -0.00000000000E+00 -0.45600000000E+02  0.45600000000E+02  0.00000000000E+00 0. -1.
        -11    1    1    2    0    0  0.42408037148E-01  0.72243945338E+00  0.12687229234E+02  0.12707852015E+02  0.00000000000E+00 0. -1.
         11    1    1    2    0    0  0.45969069313E+01 -0.33384407548E+01 -0.43723296337E+02  0.44090853729E+02  0.00000000000E+00 0. -1.
        -15    1    1    2    0    0  0.33959382712E+01  0.49561368869E+01  0.12274919709E+02  0.13781403138E+02  0.17770000000E+01 0.  1.
         15    1    1    2    0    0 -0.80352532396E+01 -0.23401355855E+01  0.18761147394E+02  0.20619891118E+02  0.17770000000E+01 0. -1.
</event>
<event>
 6    1  0.3691007E-002  0.4642178E+02  0.7546771E-02  0.1314128E+00
        -11   -1    0    0    0    0  0.00000000000E+00  0.00000000000E+00  0.45600000000E+02  0.45600000000E+02  0.00000000000E+00 0. -1.
         11   -1    0    0    0    0 -0.00000000000E+00 -0.00000000000E+00 -0.45600000000E+02  0.45600000000E+02  0.00000000000E+00 0. -1.
        -11    1    1    2    0    0 -0.13726432700E+01  0.72067216556E+00  0.44751371860E+02  0.44778217933E+02  0.00000000000E+00 0. -1.
         11    1    1    2    0    0 -0.19717927763E+01  0.22787052825E+01 -0.29150823705E+02  0.29306159544E+02  0.00000000000E+00 0. -1.
        -15    1    1    2    0    0  0.23734064289E+01 -0.35297562467E+01 -0.80103830845E+01  0.92420886925E+01  0.17770000000E+01 0. -1.
         15    1    1    2    0    0  0.97102961742E+00  0.53037879871E+00 -0.75901650703E+01  0.78735338306E+01  0.17770000000E+01 0. -1.
</event>
<event>
 6    1  0.3691007E-002  0.4613780E+02  0.7546771E-02  0.1315490E+00
        -11   -1    0    0    0    0  0.00000000000E+00  0.00000000000E+00  0.45600000000E+02  0.45600000000E+02  0.00000000000E+00 0.  1.
         11   -1    0    0    0    0 -0.00000000000E+00 -0.00000000000E+00 -0.45600000000E+02  0.45600000000E+02  0.00000000000E+00 0. -1.
        -11    1    1    2    0    0  0.10948535192E+01 -0.79377895438E+00  0.33718868744E+02  0.33745976037E+02  0.00000000000E+00 0.  1.
         11    1    1    2    0    0 -0.10721877629E+01 -0.15049887054E+00 -0.45049189826E+02  0.45062198576E+02  0.00000000000E+00 0. -1.
        -15    1    1    2    0    0  0.10879292182E+01  0.48304455139E+00  0.24331301227E+01  0.32395637386E+01  0.17770000000E+01 0.  1.
         15    1    1    2    0    0 -0.11105949745E+01  0.46123327353E+00  0.88971909590E+01  0.91522616490E+01  0.17770000000E+01 0.  1.
</event>
<event>
 6    1  0.3691007E-002  0.4578582E+02  0.7546771E-02  0.1317195E+00
        -11   -1    0    0    0    0  0.00000000000E+00  0.00000000000E+00  0.45600000000E+02  0.45600000000E+02  0.00000000000E+00 0. -1.
         11   -1    0    0    0    0 -0.00000000000E+00 -0.00000000000E+00 -0.45600000000E+02  0.45600000000E+02  0.00000000000E+00 0.  1.
        -11    1    1    2    0    0  0.15553017126E+01 -0.65057224062E+00  0.98216402407E+01  0.99652809632E+01  0.00000000000E+00 0. -1.
         11    1    1    2    0    0 -0.26228780081E+01  0.19964767168E+00 -0.45337930758E+02  0.45414175250E+02  0.00000000000E+00 0.  1.
        -15    1    1    2    0    0  0.18313385543E+01 -0.15423903609E-01  0.23813009525E+02  0.23949346346E+02  0.17770000000E+01 0. -1.
         15    1    1    2    0    0 -0.76376225870E+00  0.46634847255E+00  0.11703280992E+02  0.11871197440E+02  0.17770000000E+01 0. -1.
</event>
<event>
 6    1  0.3691007E-002  0.4810423E+02  0.7546771E-02  0.1306279E+00
        -11   -1    0    0    0    0  0.00000000000E+00  0.00000000000E+00  0.45600000000E+02  0.45600000000E+02  0.00000000000E+00 0. -1.
         11   -1    0    0    0    0 -0.00000000000E+00 -0.00000000000E+00 -0.45600000000E+02  0.45600000000E+02  0.00000000000E+00 0.  1.
        -11    1    1    2    0    0  0.11480428740E+01 -0.77540207864E+00  0.43073493597E+02  0.43095766631E+02  0.00000000000E+00 0. -1.
         11    1    1    2    0    0 -0.44091487017E+00  0.32417746108E+00 -0.40077070131E+02  0.40080806470E+02  0.00000000000E+00 0.  1.
        -15    1    1    2    0    0 -0.11339899760E+01  0.10544623742E+01 -0.48242288669E+01  0.53692399206E+01  0.17770000000E+01 0.  1.
         15    1    1    2    0    0  0.42686197213E+00 -0.60323775661E+00  0.18278054014E+01  0.26541869790E+01  0.17770000000E+01 0. -1.
</event>
<event>
 6    1  0.3691007E-002  0.4627506E+02  0.7546771E-02  0.1314830E+00
        -11   -1    0    0    0    0  0.00000000000E+00  0.00000000000E+00  0.45600000000E+02  0.45600000000E+02  0.00000000000E+00 0. -1.
         11   -1    0    0    0    0 -0.00000000000E+00 -0.00000000000E+00 -0.45600000000E+02  0.45600000000E+02  0.00000000000E+00 0.  1.
        -11    1    1    2    0    0 -0.48875158029E+00 -0.88827540311E+00  0.36253170107E+02  0.36267344183E+02  0.00000000000E+00 0. -1.
         11    1    1    2    0    0 -0.75733853903E+00  0.87302709074E+00 -0.44910067685E+02  0.44924936477E+02  0.00000000000E+00 0.  1.
        -15    1    1    2    0    0 -0.31132943094E+00  0.13971875640E+01  0.40776837002E+01  0.46727178882E+01  0.17770000000E+01 0.  1.
         15    1    1    2    0    0  0.15574195503E+01 -0.13819392516E+01  0.45792138784E+01  0.53350014521E+01  0.17770000000E+01 0. -1.
</event>
<event>
 6    1  0.3691007E-002  0.4953459E+02  0.7546771E-02  0.1299890E+00
        -11   -1    0    0    0    0  0.00000000000E+00  0.00000000000E+00  0.45600000000E+02  0.45600000000E+02  0.00000000000E+00 0.  1.
         11   -1    0    0    0    0 -0.00000000000E+00 -0.00000000000E+00 -0.45600000000E+02  0.45600000000E+02  0.00000000000E+00 0. -1.
        -11    1    1    2    0    0 -0.16644428690E+01 -0.14374701678E+01  0.41607328455E+02  0.41665410975E+02  0.00000000000E+00 0.  1.
         11    1    1    2    0    0 -0.95763940732E+00 -0.53287090110E+00 -0.19143969983E+02  0.19175312549E+02  0.00000000000E+00 0. -1.
        -15    1    1    2    0    0  0.25018798608E+01  0.26300063280E+01 -0.26017471133E+02  0.26329505678E+02  0.17770000000E+01 0. -1.
         15    1    1    2    0    0  0.12020241551E+00 -0.65966525910E+00  0.35541126608E+01  0.40297707975E+01  0.17770000000E+01 0.  1.
</event>
<event>
 6    1  0.3691007E-002  0.4584967E+02  0.7546771E-02  0.1316885E+00
        -11   -1    0    0    0    0  0.00000000000E+00  0.00000000000E+00  0.45600000000E+02  0.45600000000E+02  0.00000000000E+00 0. -1.
         11   -1    0    0    0    0 -0.00000000000E+00 -0.00000000000E+00 -0.45600000000E+02  0.45600000000E+02  0.00000000000E+00 0.  1.
        -11    1    1    2    0    0  0.12533782172E+01  0.59580414408E+00  0.18739519802E+02  0.18790836648E+02  0.00000000000E+00 0. -1.
         11    1    1    2    0    0  0.99742465044E-01 -0.11785091542E+01 -0.45334900159E+02  0.45350325300E+02  0.00000000000E+00 0.  1.
        -15    1    1    2    0    0  0.34300766759E+00 -0.46302309072E+00  0.58162890037E+01  0.61089271903E+01  0.17770000000E+01 0.  1.
         15    1    1    2    0    0 -0.16961283498E+01  0.10457281008E+01  0.20779091354E+02  0.20949910862E+02  0.17770000000E+01 0. -1.
</event>
<event>
 6    1  0.3691007E-002  0.4754440E+02  0.7546771E-02  0.1308849E+00
        -11   -1    0    0    0    0  0.00000000000E+00  0.00000000000E+00  0.45600000000E+02  0.45600000000E+02  0.00000000000E+00 0. -1.
         11   -1    0    0    0    0 -0.00000000000E+00 -0.00000000000E+00 -0.45600000000E+02  0.45600000000E+02  0.00000000000E+00 0.  1.
        -11    1    1    2    0    0  0.41990458031E+00  0.42359913433E+00  0.32742851245E+02  0.32748283371E+02  0.00000000000E+00 0. -1.
         11    1    1    2    0    0 -0.21788773075E+01 -0.29787550616E+01 -0.43499318725E+02  0.43655597781E+02  0.00000000000E+00 0.  1.
        -15    1    1    2    0    0  0.54378198977E+00  0.15742727813E+01 -0.11240212203E+01  0.26823844516E+01  0.17770000000E+01 0.  1.
         15    1    1    2    0    0  0.12151907375E+01  0.98088314592E+00  0.11880488701E+02  0.12113734397E+02  0.17770000000E+01 0. -1.
</event>
<event>
 6    1  0.3691007E-002  0.4203258E+02  0.7546771E-02  0.1336546E+00
        -11   -1    0    0    0    0  0.00000000000E+00  0.00000000000E+00  0.45600000000E+02  0.45600000000E+02  0.00000000000E+00 0.  1.
         11   -1    0    0    0    0 -0.00000000000E+00 -0.00000000000E+00 -0.45600000000E+02  0.45600000000E+02  0.00000000000E+00 0. -1.
        -11    1    1    2    0    0 -0.55796741030E+00  0.73866293256E+00  0.42602103749E+02  0.42612160171E+02  0.00000000000E+00 0.  1.
         11    1    1    2    0    0 -0.11369647708E+01  0.55885524710E+00 -0.41468391659E+02  0.41487739332E+02  0.00000000000E+00 0. -1.
        -15    1    1    2    0    0  0.51734560212E+00 -0.84775126640E+00 -0.33959297337E+01  0.39593429301E+01  0.17770000000E+01 0.  1.
         15    1    1    2    0    0  0.11775865789E+01 -0.44976691326E+00  0.22622176439E+01  0.31407575671E+01  0.17770000000E+01 0.  1.
</event>
<event>
 6    1  0.3691007E-002  0.4594338E+02  0.7546771E-02  0.1316430E+00
        -11   -1    0    0    0    0  0.00000000000E+00  0.00000000000E+00  0.45600000000E+02  0.45600000000E+02  0.00000000000E+00 0.  1.
         11   -1    0    0    0    0 -0.00000000000E+00 -0.00000000000E+00 -0.45600000000E+02  0.45600000000E+02  0.00000000000E+00 0.  1.
        -11    1    1    2    0    0  0.61439996749E+00 -0.11613651396E+01  0.30370555253E+02  0.30398961868E+02  0.00000000000E+00 0.  1.
         11    1    1    2    0    0  0.93831290874E+00  0.42997539583E+00 -0.45244849676E+02  0.45256620865E+02  0.00000000000E+00 0.  1.
        -15    1    1    2    0    0 -0.73446576805E+00  0.45626829558E+00  0.36792145290E+01  0.41763583745E+01  0.17770000000E+01 0.  1.
         15    1    1    2    0    0 -0.81824710818E+00  0.27512144814E+00  0.11195079894E+02  0.11368058892E+02  0.17770000000E+01 0. -1.
</event>
<event>
 6    1  0.3691007E-002  0.4544783E+02  0.7546771E-02  0.1318849E+00
        -11   -1    0    0    0    0  0.00000000000E+00  0.00000000000E+00  0.45600000000E+02  0.45600000000E+02  0.00000000000E+00 0. -1.
         11   -1    0    0    0    0 -0.00000000000E+00 -0.00000000000E+00 -0.45600000000E+02  0.45600000000E+02  0.00000000000E+00 0. -1.
        -11    1    1    2    0    0 -0.10975237944E+01 -0.72772573512E+00  0.29028933319E+01  0.31876218284E+01  0.00000000000E+00 0. -1.
         11    1    1    2    0    0 -0.84050372713E+01  0.74266292084E+00 -0.42977286052E+02  0.43797754693E+02  0.00000000000E+00 0. -1.
        -15    1    1    2    0    0  0.15305426844E+01  0.41355775271E+01  0.30847822394E+02  0.31212039950E+02  0.17770000000E+01 0. -1.
         15    1    1    2    0    0  0.79720183813E+01 -0.41505147128E+01  0.92265703256E+01  0.13002583529E+02  0.17770000000E+01 0.  1.
</event>
<event>
 6    1  0.3691007E-002  0.4783169E+02  0.7546771E-02  0.1307525E+00
        -11   -1    0    0    0    0  0.00000000000E+00  0.00000000000E+00  0.45600000000E+02  0.45600000000E+02  0.00000000000E+00 0.  1.
         11   -1    0    0    0    0 -0.00000000000E+00 -0.00000000000E+00 -0.45600000000E+02  0.45600000000E+02  0.00000000000E+00 0. -1.
        -11    1    1    2    0    0 -0.13459833137E+01  0.32621714678E+01  0.32403753799E+02  0.32595347736E+02  0.00000000000E+00 0.  1.
         11    1    1    2    0    0  0.33928964971E+01  0.13948216399E+01 -0.43212880482E+02  0.43368310016E+02  0.00000000000E+00 0. -1.
        -15    1    1    2    0    0 -0.22351594183E+01 -0.57376163128E+01  0.28610615044E+01  0.70185169737E+01  0.17770000000E+01 0. -1.
         15    1    1    2    0    0  0.18824623489E+00  0.10806232051E+01  0.79480651792E+01  0.82178252750E+01  0.17770000000E+01 0.  1.
</event>
<event>
 6    1  0.3691007E-002  0.4683033E+02  0.7546771E-02  0.1312187E+00
        -11   -1    0    0    0    0  0.00000000000E+00  0.00000000000E+00  0.45600000000E+02  0.45600000000E+02  0.00000000000E+00 0.  1.
         11   -1    0    0    0    0 -0.00000000000E+00 -0.00000000000E+00 -0.45600000000E+02  0.45600000000E+02  0.00000000000E+00 0. -1.
        -11    1    1    2    0    0  0.11326456632E+01  0.37052801598E-01  0.44355197274E+02  0.44369671898E+02  0.00000000000E+00 0.  1.
         11    1    1    2    0    0  0.14150603152E+01  0.93518645109E+00 -0.37100260984E+02  0.37139013645E+02  0.00000000000E+00 0. -1.
        -15    1    1    2    0    0 -0.54737541185E+00 -0.19831216198E+01 -0.11541714656E+01  0.29533425085E+01  0.17770000000E+01 0. -1.
         15    1    1    2    0    0 -0.20003305665E+01  0.10108823672E+01 -0.61007648245E+01  0.67379719485E+01  0.17770000000E+01 0.  1.
</event>
<event>
 6    1  0.3691007E-002  0.4599943E+02  0.7546771E-02  0.1316159E+00
        -11   -1    0    0    0    0  0.00000000000E+00  0.00000000000E+00  0.45600000000E+02  0.45600000000E+02  0.00000000000E+00 0. -1.
         11   -1    0    0    0    0 -0.00000000000E+00 -0.00000000000E+00 -0.45600000000E+02  0.45600000000E+02  0.00000000000E+00 0. -1.
        -11    1    1    2    0    0  0.74255808183E+00  0.19592452304E+00  0.45194040971E+02  0.45200565464E+02  0.00000000000E+00 0. -1.
         11    1    1    2    0    0 -0.19838160176E+01  0.11485556256E+01 -0.33290161152E+02  0.33368990628E+02  0.00000000000E+00 0. -1.
        -15    1    1    2    0    0  0.47850837536E+00 -0.29680308957E+00 -0.37876806132E+01  0.42215300268E+01  0.17770000000E+01 0.  1.
         15    1    1    2    0    0  0.76274956044E+00 -0.10476770591E+01 -0.81161992064E+01  0.84089138817E+01  0.17770000000E+01 0. -1.
</event>
<event>
 6    1  0.3691007E-002  0.4054334E+02  0.7546771E-02  0.1344884E+00
        -11   -1    0    0    0    0  0.00000000000E+00  0.00000000000E+00  0.45600000000E+02  0.45600000000E+02  0.00000000000E+00 0.  1.
         11   -1    0    0    0    0 -0.00000000000E+00 -0.00000000000E+00 -0.45600000000E+02  0.45600000000E+02  0.00000000000E+00 0. -1.
        -11    1    1    2    0    0 -0.21046438595E+00 -0.93847475199E+00  0.40075647556E+02  0.40087186945E+02  0.00000000000E+00 0.  1.
         11    1    1    2    0    0 -0.36276413438E+01 -0.13172937841E+01 -0.40944782357E+02  0.41126271979E+02  0.00000000000E+00 0. -1.
        -15    1    1    2    0    0  0.20271336924E+01  0.29155816703E+01 -0.32314510850E+01  0.51195598050E+01  0.17770000000E+01 0. -1.
         15    1    1    2    0    0  0.18109720374E+01 -0.65981313419E+00  0.41005858852E+01  0.48669812712E+01  0.17770000000E+01 0.  1.
</event>
<event>
 6    1  0.3691007E-002  0.4985237E+02  0.7546771E-02  0.1298505E+00
        -11   -1    0    0    0    0  0.00000000000E+00  0.00000000000E+00  0.45600000000E+02  0.45600000000E+02  0.00000000000E+00 0. -1.
         11   -1    0    0    0    0 -0.00000000000E+00 -0.00000000000E+00 -0.45600000000E+02  0.45600000000E+02  0.00000000000E+00 0.  1.
        -11    1    1    2    0    0  0.93384850005E-01  0.60003549958E+00  0.41343171928E+02  0.41347631472E+02  0.00000000000E+00 0. -1.
         11    1    1    2    0    0  0.35934308562E+00 -0.78374709148E+00 -0.40763538438E+02  0.40772655702E+02  0.00000000000E+00 0.  1.
        -15    1    1    2    0    0 -0.20879401318E+01  0.35934117615E+01 -0.15715348755E+01  0.47853477352E+01  0.17770000000E+01 0. -1.
         15    1    1    2    0    0  0.16352121962E+01 -0.34097001696E+01  0.99190138611E+00  0.42943650908E+01  0.17770000000E+01 0.  1.
</event>
<event>
 6    1  0.3691007E-002  0.4709250E+02  0.7546771E-02  0.1310954E+00
        -11   -1    0    0    0    0  0.00000000000E+00  0.00000000000E+00  0.45600000000E+02  0.45600000000E+02  0.00000000000E+00 0.  1.
         11   -1    0    0    0    0 -0.00000000000E+00 -0.00000000000E+00 -0.45600000000E+02  0.45600000000E+02  0.00000000000E+00 0.  1.
        -11    1    1    2    0    0  0.10261081423E+01 -0.10435943043E+00  0.44095439847E+02  0.44107500543E+02  0.00000000000E+00 0.  1.
         11    1    1    2    0    0 -0.74648492722E+00 -0.55181386048E+00 -0.41979701021E+02  0.41989963516E+02  0.00000000000E+00 0.  1.
        -15    1    1    2    0    0  0.80549254701E+00 -0.44166272433E+00 -0.18658217998E+01  0.27354897539E+01  0.17770000000E+01 0.  1.
         15    1    1    2    0    0 -0.10851157621E+01  0.10978360152E+01 -0.24991702646E+00  0.23670461875E+01  0.17770000000E+01 0.  1.
</event>
<event>
 6    1  0.3691007E-002  0.4677004E+02  0.7546771E-02  0.1312472E+00
        -11   -1    0    0    0    0  0.00000000000E+00  0.00000000000E+00  0.45600000000E+02  0.45600000000E+02  0.00000000000E+00 0. -1.
         11   -1    0    0    0    0 -0.00000000000E+00 -0.00000000000E+00 -0.45600000000E+02  0.45600000000E+02  0.00000000000E+00 0. -1.
        -11    1    1    2    0    0 -0.21148922398E+01 -0.75563816576E+00  0.34430427580E+02  0.34503595488E+02  0.00000000000E+00 0. -1.
         11    1    1    2    0    0 -0.12099076156E+00 -0.80325209808E+00 -0.44422533944E+02  0.44429960327E+02  0.00000000000E+00 0. -1.
        -15    1    1    2    0    0 -0.40958169416E+00  0.55089340833E+00  0.19510990193E+00  0.19149510661E+01  0.17770000000E+01 0.  1.
         15    1    1    2    0    0  0.26454646956E+01  0.10079968555E+01  0.97969964618E+01  0.10351493119E+02  0.17770000000E+01 0. -1.
</event>
<event>
 6    1  0.3691007E-002  0.4720332E+02  0.7546771E-02  0.1310435E+00
        -11   -1    0    0    0    0  0.00000000000E+00  0.00000000000E+00  0.45600000000E+02  0.45600000000E+02  0.00000000000E+00 0.  1.
         11   -1    0    0    0    0 -0.00000000000E+00 -0.00000000000E+00 -0.45600000000E+02  0.45600000000E+02  0.00000000000E+00 0. -1.
        -11    1    1    2    0    0  0.10950333045E+01 -0.31402547382E+00  0.43981926795E+02  0.43996677085E+02  0.00000000000E+00 0.  1.
         11    1    1    2    0    0  0.16741373180E+00 -0.84547017446E+00 -0.39230419211E+02  0.39239885813E+02  0.00000000000E+00 0. -1.
        -15    1    1    2    0    0 -0.60699266515E+00  0.13457513353E+01 -0.54631714471E+01  0.59315645501E+01  0.17770000000E+01 0. -1.
         15    1    1    2    0    0 -0.65545437114E+00 -0.18625568704E+00  0.71166386327E+00  0.20318725521E+01  0.17770000000E+01 0. -1.
</event>
<event>
 6    1  0.3691007E-002  0.4669474E+02  0.7546771E-02  0.1312829E+00
        -11   -1    0    0    0    0  0.00000000000E+00  0.00000000000E+00  0.45600000000E+02  0.45600000000E+02  0.00000000000E+00 0. -1.
         11   -1    0    0    0    0 -0.00000000000E+00 -0.00000000000E+00 -0.45600000000E+02  0.45600000000E+02  0.00000000000E+00 0. -1.
        -11    1    1    2    0    0  0.64629389975E+00 -0.53137229584E-01  0.44500536330E+02  0.44505260959E+02  0.00000000000E+00 0. -1.
         11    1    1    2    0    0 -0.77569750106E+00  0.45158247534E+00 -0.33818463129E+02  0.33830372178E+02  0.00000000000E+00 0. -1.
        -15    1    1    2    0    0 -0.13862599464E+01  0.10476269024E+01 -0.80509295760E+00  0.26124973562E+01  0.17770000000E+01 0.  1.
         15    1    1    2    0    0  0.15156635477E+01 -0.14460721482E+01 -0.98769802436E+01  0.10251869507E+02  0.17770000000E+01 0. -1.
</event>
<event>
 6    1  0.3691007E-002  0.5313010E+02  0.7546771E-02  0.1284869E+00
        -11   -1    0    0    0    0  0.00000000000E+00  0.00000000000E+00  0.45600000000E+02  0.45600000000E+02  0.00000000000E+00 0. -1.
         11   -1    0    0    0    0 -0.00000000000E+00 -0.00000000000E+00 -0.45600000000E+02  0.45600000000E+02  0.00000000000E+00 0. -1.
        -11    1    1    2    0    0  0.61942977163E+00 -0.81107348757E-01  0.29521689711E+02  0.29528298885E+02  0.00000000000E+00 0. -1.
         11    1    1    2    0    0  0.50916317413E+01 -0.16841901130E+01 -0.37690263029E+02  0.38069898047E+02  0.00000000000E+00 0. -1.
        -15    1    1    2    0    0 -0.58942398300E+01  0.36166189903E+01 -0.59232265598E+01  0.92770867180E+01  0.17770000000E+01 0.  1.
         15    1    1    2    0    0  0.18317831709E+00 -0.18513215285E+01  0.14091799878E+02  0.14324716350E+02  0.17770000000E+01 0. -1.
</event>
<event>
 6    1  0.3691007E-002  0.4717842E+02  0.7546771E-02  0.1310551E+00
        -11   -1    0    0    0    0  0.00000000000E+00  0.00000000000E+00  0.45600000000E+02  0.45600000000E+02  0.00000000000E+00 0.  1.
         11   -1    0    0    0    0 -0.00000000000E+00 -0.00000000000E+00 -0.45600000000E+02  0.45600000000E+02  0.00000000000E+00 0.  1.
        -11    1    1    2    0    0 -0.27770207567E+01  0.55469373297E+00  0.43930396934E+02  0.44021577711E+02  0.00000000000E+00 0.  1.
         11    1    1    2    0    0  0.60299881721E+00 -0.17927836275E+00 -0.40757496103E+02  0.40762350728E+02  0.00000000000E+00 0.  1.
        -15    1    1    2    0    0 -0.10344835760E-01  0.96632453159E+00 -0.81427327693E-01  0.20244133782E+01  0.17770000000E+01 0. -1.
         15    1    1    2    0    0  0.21843667752E+01 -0.13417399018E+01 -0.30914735029E+01  0.43916581825E+01  0.17770000000E+01 0. -1.
</event>
<event>
 6    1  0.3691007E-002  0.4588628E+02  0.7546771E-02  0.1316707E+00
        -11   -1    0    0    0    0  0.00000000000E+00  0.00000000000E+00  0.45600000000E+02  0.45600000000E+02  0.00000000000E+00 0. -1.
         11   -1    0    0    0    0 -0.00000000000E+00 -0.00000000000E+00 -0.45600000000E+02  0.45600000000E+02  0.00000000000E+00 0.  1.
        -11    1    1    2    0    0  0.18618099596E+01 -0.85040229091E+00  0.84405475303E-01  0.20485713720E+01  0.00000000000E+00 0. -1.
         11    1    1    2    0    0 -0.23846099064E+01  0.23700550957E+00 -0.43256879152E+02  0.43323205444E+02  0.00000000000E+00 0.  1.
        -15    1    1    2    0    0  0.30709220195E+01 -0.57274613868E+01  0.31281517812E+02  0.31998835317E+02  0.17770000000E+01 0.  1.
         15    1    1    2    0    0 -0.25481220727E+01  0.63408581681E+01  0.11890955864E+02  0.13829387867E+02  0.17770000000E+01 0. -1.
</event>
<event>
 6    1  0.3691007E-002  0.4778672E+02  0.7546771E-02  0.1307731E+00
        -11   -1    0    0    0    0  0.00000000000E+00  0.00000000000E+00  0.45600000000E+02  0.45600000000E+02  0.00000000000E+00 0. -1.
         11   -1    0    0    0    0 -0.00000000000E+00 -0.00000000000E+00 -0.45600000000E+02  0.45600000000E+02  0.00000000000E+00 0. -1.
        -11    1    1    2    0    0  0.43782756957E+00 -0.56360355337E+00  0.41688290309E+02  0.41694398795E+02  0.00000000000E+00 0. -1.
         11    1    1    2    0    0  0.24978638414E+00 -0.92974045869E+00 -0.43402600539E+02  0.43413276127E+02  0.00000000000E+00 0. -1.
        -15    1    1    2    0    0 -0.20197570925E+01  0.22272941648E+01  0.12366087362E+01  0.37050220210E+01  0.17770000000E+01 0.  1.
         15    1    1    2    0    0  0.13321431388E+01 -0.73395015278E+00  0.47770149316E+00  0.23873030569E+01  0.17770000000E+01 0. -1.
</event>
<event>
 6    1  0.3691007E-002  0.4603851E+02  0.7546771E-02  0.1315970E+00
        -11   -1    0    0    0    0  0.00000000000E+00  0.00000000000E+00  0.45600000000E+02  0.45600000000E+02  0.00000000000E+00 0.  1.
         11   -1    0    0    0    0 -0.00000000000E+00 -0.00000000000E+00 -0.45600000000E+02  0.45600000000E+02  0.00000000000E+00 0.  1.
        -11    1    1    2    0    0  0.83089904406E+00 -0.54652007327E+00  0.45150536865E+02  0.45161488644E+02  0.00000000000E+00 0.  1.
         11    1    1    2    0    0 -0.12715742472E+01  0.94990936705E+00 -0.18300568166E+02  0.18369268469E+02  0.00000000000E+00 0.  1.
        -15    1    1    2    0    0  0.19525593960E+01 -0.19928818106E+01 -0.19810733439E+02  0.20084993266E+02  0.17770000000E+01 0. -1.
         15    1    1    2    0    0 -0.15118841929E+01  0.15894925169E+01 -0.70392352590E+01  0.75842496204E+01  0.17770000000E+01 0. -1.
</event>
<event>
 6    1  0.3691007E-002  0.4651732E+02  0.7546771E-02  0.1313672E+00
        -11   -1    0    0    0    0  0.00000000000E+00  0.00000000000E+00  0.45600000000E+02  0.45600000000E+02  0.00000000000E+00 0.  1.
         11   -1    0    0    0    0 -0.00000000000E+00 -0.00000000000E+00 -0.45600000000E+02  0.45600000000E+02  0.00000000000E+00 0. -1.
        -11    1    1    2    0    0  0.59156534493E+00  0.51716071418E+00  0.44675770414E+02  0.44682679719E+02  0.00000000000E+00 0.  1.
         11    1    1    2    0    0  0.12247081651E+01  0.16873661196E+01 -0.26919685520E+02  0.27000307091E+02  0.00000000000E+00 0. -1.
        -15    1    1    2    0    0 -0.35610963375E+01 -0.19742090233E+01 -0.15582609178E+02  0.16203528819E+02  0.17770000000E+01 0. -1.
         15    1    1    2    0    0  0.17448228275E+01 -0.23031781051E+00 -0.21734757158E+01  0.33134843715E+01  0.17770000000E+01 0.  1.
</event>
<event>
 6    1  0.3691007E-002  0.4631064E+02  0.7546771E-02  0.1314660E+00
        -11   -1    0    0    0    0  0.00000000000E+00  0.00000000000E+00  0.45600000000E+02  0.45600000000E+02  0.00000000000E+00 0.  1.
         11   -1    0    0    0    0 -0.00000000000E+00 -0.00000000000E+00 -0.45600000000E+02  0.45600000000E+02  0.00000000000E+00 0. -1.
        -11    1    1    2    0    0  0.34406106172E-01 -0.78224239761E+00  0.38172998288E+02  0.38181027818E+02  0.00000000000E+00 0.  1.
         11    1    1    2    0    0  0.15295177789E+01 -0.85828296279E+00 -0.44855084853E+02  0.44889360782E+02  0.00000000000E+00 0. -1.
        -15    1    1    2    0    0 -0.10416969608E+01  0.36619657193E+00  0.46507294429E+01  0.50996319317E+01  0.17770000000E+01 0.  1.
         15    1    1    2    0    0 -0.52222692431E+00  0.12743287885E+01  0.20313571220E+01  0.30299794684E+01  0.17770000000E+01 0. -1.
</event>
<event>
 6    1  0.3691007E-002  0.4979370E+02  0.7546771E-02  0.1298759E+00
        -11   -1    0    0    0    0  0.00000000000E+00  0.00000000000E+00  0.45600000000E+02  0.45600000000E+02  0.00000000000E+00 0.  1.
         11   -1    0    0    0    0 -0.00000000000E+00 -0.00000000000E+00 -0.45600000000E+02  0.45600000000E+02  0.00000000000E+00 0. -1.
        -11    1    1    2    0    0 -0.43392970119E+01 -0.13642139045E+01  0.22051429386E+02  0.22515686001E+02  0.00000000000E+00 0.  1.
         11    1    1    2    0    0  0.48237149015E+00  0.89274356036E+00 -0.41393864838E+02  0.41406300481E+02  0.00000000000E+00 0. -1.
        -15    1    1    2    0    0  0.49279517143E+01  0.34710833730E+01  0.21925764530E+02  0.22808551184E+02  0.17770000000E+01 0. -1.
         15    1    1    2    0    0 -0.10710261926E+01 -0.29996130289E+01 -0.25833290779E+01  0.44694623338E+01  0.17770000000E+01 0. -1.
</event>
<event>
 6    1  0.3691007E-002  0.4683812E+02  0.7546771E-02  0.1312150E+00
        -11   -1    0    0    0    0  0.00000000000E+00  0.00000000000E+00  0.45600000000E+02  0.45600000000E+02  0.00000000000E+00 0. -1.
         11   -1    0    0    0    0 -0.00000000000E+00 -0.00000000000E+00 -0.45600000000E+02  0.45600000000E+02  0.00000000000E+00 0.  1.
        -11    1    1    2    0    0 -0.87484988740E+00  0.61442656199E+00  0.44349001181E+02  0.44361884406E+02  0.00000000000E+00 0. -1.
         11    1    1    2    0    0  0.37126165641E+00  0.51087440227E+00 -0.41380698477E+02  0.41385517204E+02  0.00000000000E+00 0.  1.
        -15    1    1    2    0    0  0.49365594325E+00 -0.18849652547E+01 -0.18266489802E+01  0.32079846787E+01  0.17770000000E+01 0. -1.
         15    1    1    2    0    0  0.99322877356E-02  0.75966429039E+00 -0.11416537241E+01  0.22446137107E+01  0.17770000000E+01 0. -1.
</event>
<event>
 6    1  0.3691007E-002  0.4743105E+02  0.7546771E-02  0.1309374E+00
        -11   -1    0    0    0    0  0.00000000000E+00  0.00000000000E+00  0.45600000000E+02  0.45600000000E+02  0.00000000000E+00 0. -1.
         11   -1    0    0    0    0 -0.00000000000E+00 -0.00000000000E+00 -0.45600000000E+02  0.45600000000E+02  0.00000000000E+00 0.  1.
        -11    1    1    2    0    0 -0.49006261706E+00 -0.14546831056E+01  0.39829235973E+02  0.39858804579E+02  0.00000000000E+00 0. -1.
         11    1    1    2    0    0 -0.58781516825E+00  0.36984140811E+00 -0.43763435570E+02  0.43768945637E+02  0.00000000000E+00 0.  1.
        -15    1    1    2    0    0 -0.85662226580E+00 -0.12028271602E+01 -0.94731640651E-02  0.23105007302E+01  0.17770000000E+01 0. -1.
         15    1    1    2    0    0  0.19345000511E+01  0.22876688577E+01  0.39436727610E+01  0.52617490530E+01  0.17770000000E+01 0.  1.
</event>
<event>
 6    1  0.3691007E-002  0.3880855E+02  0.7546771E-02  0.1355136E+00
        -11   -1    0    0    0    0  0.00000000000E+00  0.00000000000E+00  0.45600000000E+02  0.45600000000E+02  0.00000000000E+00 0.  1.
         11   -1    0    0    0    0 -0.00000000000E+00 -0.00000000000E+00 -0.45600000000E+02  0.45600000000E+02  0.00000000000E+00 0.  1.
        -11    1    1    2    0    0  0.47888135093E+00 -0.10321683923E+01  0.39110678438E+02  0.39127226669E+02  0.00000000000E+00 0.  1.
         11    1    1    2    0    0 -0.21356922584E+01  0.87677672451E+00 -0.38441326600E+02  0.38510589578E+02  0.00000000000E+00 0.  1.
        -15    1    1    2    0    0 -0.34578094087E+01  0.37883433410E+01  0.28730481616E+01  0.61416712640E+01  0.17770000000E+01 0.  1.
         15    1    1    2    0    0  0.51146203162E+01 -0.36329516732E+01 -0.35423999993E+01  0.74205124886E+01  0.17770000000E+01 0.  1.
</event>
<event>
 6    1  0.3691007E-002  0.5043137E+02  0.7546771E-02  0.1296010E+00
        -11   -1    0    0    0    0  0.00000000000E+00  0.00000000000E+00  0.45600000000E+02  0.45600000000E+02  0.00000000000E+00 0. -1.
         11   -1    0    0    0    0 -0.00000000000E+00 -0.00000000000E+00 -0.45600000000E+02  0.45600000000E+02  0.00000000000E+00 0. -1.
        -11    1    1    2    0    0 -0.72974880950E+01 -0.46289118240E+01  0.39842203744E+02  0.40768632015E+02  0.00000000000E+00 0. -1.
         11    1    1    2    0    0  0.88857977163E+00  0.78626483752E+00 -0.30802875342E+02  0.30825718414E+02  0.00000000000E+00 0. -1.
        -15    1    1    2    0    0 -0.49537462447E+01 -0.84092444348E-02 -0.29777721825E+01  0.60468610653E+01  0.17770000000E+01 0. -1.
         15    1    1    2    0    0  0.11362654568E+02  0.38510562309E+01 -0.60615562200E+01  0.13558788505E+02  0.17770000000E+01 0.  1.
</event>
<event>
 6    1  0.3691007E-002  0.4223593E+02  0.7546771E-02  0.1335439E+00
        -11   -1    0    0    0    0  0.00000000000E+00  0.00000000000E+00  0.45600000000E+02  0.45600000000E+02  0.00000000000E+00 0. -1.
         11   -1    0    0    0    0 -0.00000000000E+00 -0.00000000000E+00 -0.45600000000E+02  0.45600000000E+02  0.00000000000E+00 0.  1.
        -11    1    1    2    0    0 -0.43388133465E+00  0.57788562567E+00  0.42467630444E+02  0.42473778268E+02  0.00000000000E+00 0. -1.
         11    1    1    2    0    0 -0.24915613378E+01 -0.88911871517E+00 -0.41967489486E+02  0.42050785769E+02  0.00000000000E+00 0.  1.
        -15    1    1    2    0    0  0.30551047462E+01 -0.13409490944E+01  0.87964147793E+00  0.38811477186E+01  0.17770000000E+01 0.  1.
         15    1    1    2    0    0 -0.12966207383E+00  0.16521821839E+01 -0.13797824360E+01  0.27942882444E+01  0.17770000000E+01 0.  1.
</event>
<event>
 6    1  0.3691007E-002  0.4706151E+02  0.7546771E-02  0.1311099E+00
        -11   -1    0    0    0    0  0.00000000000E+00  0.00000000000E+00  0.45600000000E+02  0.45600000000E+02  0.00000000000E+00 0. -1.
         11   -1    0    0    0    0 -0.00000000000E+00 -0.00000000000E+00 -0.45600000000E+02  0.45600000000E+02  0.00000000000E+00 0.  1.
        -11    1    1    2    0    0 -0.29075478158E+00 -0.59719388466E+00  0.44133487333E+02  0.44138485283E+02  0.00000000000E+00 0. -1.
         11    1    1    2    0    0  0.83874527262E+00 -0.19705066146E+01 -0.37894322227E+02  0.37954789513E+02  0.00000000000E+00 0.  1.
        -15    1    1    2    0    0  0.11789050492E+01  0.49496650423E+00 -0.53125952373E+01  0.57459730343E+01  0.17770000000E+01 0.  1.
         15    1    1    2    0    0 -0.17268955402E+01  0.20727339951E+01 -0.92656986908E+00  0.33607521693E+01  0.17770000000E+01 0. -1.
</event>
<event>
 6    1  0.3691007E-002  0.4596829E+02  0.7546771E-02  0.1316309E+00
        -11   -1    0    0    0    0  0.00000000000E+00  0.00000000000E+00  0.45600000000E+02  0.45600000000E+02  0.00000000000E+00 0.  1.
         11   -1    0    0    0    0 -0.00000000000E+00 -0.00000000000E+00 -0.45600000000E+02  0.45600000000E+02  0.00000000000E+00 0.  1.
        -11    1    1    2    0    0 -0.39729145171E+00 -0.99876438458E+00  0.25736265358E+02  0.25758701935E+02  0.00000000000E+00 0.  1.
         11    1    1    2    0    0 -0.26388661034E+01 -0.83151791617E-01 -0.45154588271E+02  0.45231707578E+02  0.00000000000E+00 0.  1.
        -15    1    1    2    0    0  0.31390889295E+01  0.19881393260E+00  0.12498074750E+02  0.13009727428E+02  0.17770000000E+01 0.  1.
         15    1    1    2    0    0 -0.10293137443E+00  0.88310224359E+00  0.69202481623E+01  0.71998630590E+01  0.17770000000E+01 0. -1.
</event>
<event>
 6    1  0.3691007E-002  0.4804019E+02  0.7546771E-02  0.1306571E+00
        -11   -1    0    0    0    0  0.00000000000E+00  0.00000000000E+00  0.45600000000E+02  0.45600000000E+02  0.00000000000E+00 0.  1.
         11   -1    0    0    0    0 -0.00000000000E+00 -0.00000000000E+00 -0.45600000000E+02  0.45600000000E+02  0.00000000000E+00 0.  1.
        -11    1    1    2    0    0  0.12064101288E+01  0.11639316642E+01  0.31338871167E+02  0.31383674233E+02  0.00000000000E+00 0.  1.
         11    1    1    2    0    0 -0.16522576662E+01 -0.54136572562E+01 -0.42787044581E+02  0.43159805655E+02  0.00000000000E+00 0.  1.
        -15    1    1    2    0    0 -0.53228394564E+00 -0.31892339822E+01  0.13008808650E+01  0.39121042441E+01  0.17770000000E+01 0.  1.
         15    1    1    2    0    0  0.97813148301E+00  0.74389595742E+01  0.10147292548E+02  0.12744415868E+02  0.17770000000E+01 0.  1.
</event>
<event>
 6    1  0.3691007E-002  0.4751080E+02  0.7546771E-02  0.1309004E+00
        -11   -1    0    0    0    0  0.00000000000E+00  0.00000000000E+00  0.45600000000E+02  0.45600000000E+02  0.00000000000E+00 0. -1.
         11   -1    0    0    0    0 -0.00000000000E+00 -0.00000000000E+00 -0.45600000000E+02  0.45600000000E+02  0.00000000000E+00 0.  1.
        -11    1    1    2    0    0 -0.53178713048E+01 -0.48946068142E+01  0.43087226619E+02  0.43689198079E+02  0.00000000000E+00 0. -1.
         11    1    1    2    0    0 -0.38189849032E+00 -0.10409940096E+01 -0.30324447125E+02  0.30344713023E+02  0.00000000000E+00 0.  1.
        -15    1    1    2    0    0  0.61626255183E+01  0.42333111945E+01 -0.12466324655E+02  0.14644652825E+02  0.17770000000E+01 0. -1.
         15    1    1    2    0    0 -0.46285572323E+00  0.17022896293E+01 -0.29645483814E+00  0.25214360737E+01  0.17770000000E+01 0.  1.
</event>
<event>
 6    1  0.3691007E-002  0.4755391E+02  0.7546771E-02  0.1308805E+00
        -11   -1    0    0    0    0  0.00000000000E+00  0.00000000000E+00  0.45600000000E+02  0.45600000000E+02  0.00000000000E+00 0.  1.
         11   -1    0    0    0    0 -0.00000000000E+00 -0.00000000000E+00 -0.45600000000E+02  0.45600000000E+02  0.00000000000E+00 0. -1.
        -11    1    1    2    0    0  0.22118218389E+01 -0.86319140623E+00  0.31922085395E+02  0.32010260718E+02  0.00000000000E+00 0.  1.
         11    1    1    2    0    0  0.30379692895E+01  0.48636410464E+01 -0.43267733506E+02  0.43646088306E+02  0.00000000000E+00 0. -1.
        -15    1    1    2    0    0 -0.36574937680E+01 -0.46734863381E+01  0.30879624409E+01  0.69218477484E+01  0.17770000000E+01 0. -1.
         15    1    1    2    0    0 -0.15922973603E+01  0.67303669785E+00  0.82576856702E+01  0.86218032283E+01  0.17770000000E+01 0.  1.
</event>
<event>
 6    1  0.3691007E-002  0.4637420E+02  0.7546771E-02  0.1314355E+00
        -11   -1    0    0    0    0  0.00000000000E+00  0.00000000000E+00  0.45600000000E+02  0.45600000000E+02  0.00000000000E+00 0.  1.
         11   -1    0    0    0    0 -0.00000000000E+00 -0.00000000000E+00 -0.45600000000E+02  0.45600000000E+02  0.00000000000E+00 0. -1.
        -11    1    1    2    0    0 -0.18871147949E+01 -0.86933331441E+00  0.44777619137E+02  0.44825797464E+02  0.00000000000E+00 0.  1.
         11    1    1    2    0    0 -0.47753490927E+00  0.60799119982E+00 -0.30726185040E+02  0.30735909617E+02  0.00000000000E+00 0. -1.
        -15    1    1    2    0    0  0.33738077899E+01  0.23100045085E+00 -0.46534914482E+01  0.60206853322E+01  0.17770000000E+01 0.  1.
         15    1    1    2    0    0 -0.10091580857E+01  0.30341663744E-01 -0.93979426492E+01  0.96176075869E+01  0.17770000000E+01 0.  1.
</event>
<event>
 6    1  0.3691007E-002  0.4629364E+02  0.7546771E-02  0.1314741E+00
        -11   -1    0    0    0    0  0.00000000000E+00  0.00000000000E+00  0.45600000000E+02  0.45600000000E+02  0.00000000000E+00 0. -1.
         11   -1    0    0    0    0 -0.00000000000E+00 -0.00000000000E+00 -0.45600000000E+02  0.45600000000E+02  0.00000000000E+00 0. -1.
        -11    1    1    2    0    0 -0.11985633917E+01 -0.13267758217E+00  0.29169107712E+02  0.29194023400E+02  0.00000000000E+00 0. -1.
         11    1    1    2    0    0 -0.73570006972E+00 -0.39817636477E+00 -0.44898572174E+02  0.44906364607E+02  0.00000000000E+00 0. -1.
        -15    1    1    2    0    0 -0.10096930548E+01 -0.15225435014E+01  0.44230078816E+01  0.51047376524E+01  0.17770000000E+01 0.  1.
         15    1    1    2    0    0  0.29439565162E+01  0.20533974484E+01  0.11306456580E+02  0.11994874340E+02  0.17770000000E+01 0. -1.
</event>
<event>
 6    1  0.3691007E-002  0.4265775E+02  0.7546771E-02  0.1333164E+00
        -11   -1    0    0    0    0  0.00000000000E+00  0.00000000000E+00  0.45600000000E+02  0.45600000000E+02  0.00000000000E+00 0. -1.
         11   -1    0    0    0    0 -0.00000000000E+00 -0.00000000000E+00 -0.45600000000E+02  0.45600000000E+02  0.00000000000E+00 0.  1.
        -11    1    1    2    0    0  0.88312159259E+00  0.61779297050E+00  0.42692884526E+02  0.42706486171E+02  0.00000000000E+00 0. -1.
         11    1    1    2    0    0  0.96287630240E+00 -0.83799255930E+00 -0.42610199948E+02  0.42629315053E+02  0.00000000000E+00 0.  1.
        -15    1    1    2    0    0 -0.26876068599E+01  0.33560304977E+00  0.12650384347E+01  0.34776301243E+01  0.17770000000E+01 0. -1.
         15    1    1    2    0    0  0.84160896492E+00 -0.11540346097E+00 -0.13477230132E+01  0.23865686516E+01  0.17770000000E+01 0.  1.
</event>
<event>
 6    1  0.3691007E-002  0.5000226E+02  0.7546771E-02  0.1297855E+00
        -11   -1    0    0    0    0  0.00000000000E+00  0.00000000000E+00  0.45600000000E+02  0.45600000000E+02  0.00000000000E+00 0. -1.
         11   -1    0    0    0    0 -0.00000000000E+00 -0.00000000000E+00 -0.45600000000E+02  0.45600000000E+02  0.00000000000E+00 0.  1.
        -11    1    1    2    0    0 -0.23037717377E+01  0.28068727576E+00  0.34466859312E+02  0.34544906142E+02  0.00000000000E+00 0. -1.
         11    1    1    2    0    0  0.78404974688E+00 -0.10590635135E+01 -0.41176660365E+02  0.41197739117E+02  0.00000000000E+00 0.  1.
        -15    1    1    2    0    0  0.22511290133E+00  0.30843054156E+01 -0.33572195392E+01  0.48981902525E+01  0.17770000000E+01 0. -1.
         15    1    1    2    0    0  0.12946090895E+01 -0.23059291779E+01  0.10067020593E+02  0.10559164488E+02  0.17770000000E+01 0.  1.
</event>
<event>
 6    1  0.3691007E-002  0.4839139E+02  0.7546771E-02  0.1304976E+00
        -11   -1    0    0    0    0  0.00000000000E+00  0.00000000000E+00  0.45600000000E+02  0.45600000000E+02  0.00000000000E+00 0.  1.
         11   -1    0    0    0    0 -0.00000000000E+00 -0.00000000000E+00 -0.45600000000E+02  0.45600000000E+02  0.00000000000E+00 0.  1.
        -11    1    1    2    0    0  0.24465798483E+01 -0.30547376401E+00  0.42737549596E+02  0.42808611431E+02  0.00000000000E+00 0.  1.
         11    1    1    2    0    0 -0.23989662292E+01  0.16842054586E+01 -0.39638596079E+02  0.39746822340E+02  0.00000000000E+00 0.  1.
        -15    1    1    2    0    0 -0.28172869265E+01 -0.13675672807E+01  0.64711060146E+00  0.36583913165E+01  0.17770000000E+01 0. -1.
         15    1    1    2    0    0  0.27696733075E+01 -0.11164413865E-01 -0.37460641186E+01  0.49861749122E+01  0.17770000000E+01 0. -1.
</event>
<event>
 6    1  0.3691007E-002  0.4758030E+02  0.7546771E-02  0.1308683E+00
        -11   -1    0    0    0    0  0.00000000000E+00  0.00000000000E+00  0.45600000000E+02  0.45600000000E+02  0.00000000000E+00 0.  1.
         11   -1    0    0    0    0 -0.00000000000E+00 -0.00000000000E+00 -0.45600000000E+02  0.45600000000E+02  0.00000000000E+00 0.  1.
        -11    1    1    2    0    0 -0.39236390081E+00  0.61156137163E+00  0.39821389051E+02  0.39828017559E+02  0.00000000000E+00 0.  1.
         11    1    1    2    0    0 -0.21274966057E+00 -0.56183992674E+00 -0.43615557635E+02  0.43619695028E+02  0.00000000000E+00 0.  1.
        -15    1    1    2    0    0  0.44537160857E+00  0.14376457473E+01  0.47109506734E+01  0.52550895722E+01  0.17770000000E+01 0. -1.
         15    1    1    2    0    0  0.15974195281E+00 -0.14873671922E+01 -0.91678208904E+00  0.24971978405E+01  0.17770000000E+01 0. -1.
</event>
<event>
 6    1  0.3691007E-002  0.4636966E+02  0.7546771E-02  0.1314377E+00
        -11   -1    0    0    0    0  0.00000000000E+00  0.00000000000E+00  0.45600000000E+02  0.45600000000E+02  0.00000000000E+00 0. -1.
         11   -1    0    0    0    0 -0.00000000000E+00 -0.00000000000E+00 -0.45600000000E+02  0.45600000000E+02  0.00000000000E+00 0.  1.
        -11    1    1    2    0    0  0.60666411480E+00 -0.42755411774E+00  0.10378619833E+02  0.10405123426E+02  0.00000000000E+00 0. -1.
         11    1    1    2    0    0 -0.21763015377E+00 -0.11461988384E+01 -0.44815156553E+02  0.44830340079E+02  0.00000000000E+00 0.  1.
        -15    1    1    2    0    0  0.37743890865E+01 -0.84414857700E+00  0.82869939755E+01  0.93161471621E+01  0.17770000000E+01 0. -1.
         15    1    1    2    0    0 -0.41634230476E+01  0.24179015331E+01  0.26149542745E+02  0.26648389333E+02  0.17770000000E+01 0.  1.
</event>
<event>
 6    1  0.3691007E-002  0.4795747E+02  0.7546771E-02  0.1306949E+00
        -11   -1    0    0    0    0  0.00000000000E+00  0.00000000000E+00  0.45600000000E+02  0.45600000000E+02  0.00000000000E+00 0.  1.
         11   -1    0    0    0    0 -0.00000000000E+00 -0.00000000000E+00 -0.45600000000E+02  0.45600000000E+02  0.00000000000E+00 0. -1.
        -11    1    1    2    0    0 -0.89382235735E+00  0.10190953567E+01  0.43221281240E+02  0.43242532602E+02  0.00000000000E+00 0.  1.
         11    1    1    2    0    0 -0.15271357513E+01 -0.11069427395E+01 -0.38289691122E+02  0.38336117592E+02  0.00000000000E+00 0. -1.
        -15    1    1    2    0    0  0.65357591857E+00 -0.23497840310E+01 -0.53070871692E+01  0.61050429724E+01  0.17770000000E+01 0. -1.
         15    1    1    2    0    0  0.17673821901E+01  0.24376314138E+01  0.37549705043E+00  0.35163068339E+01  0.17770000000E+01 0. -1.
</event>
<event>
 6    1  0.3691007E-002  0.4700348E+02  0.7546771E-02  0.1311371E+00
        -11   -1    0    0    0    0  0.00000000000E+00  0.00000000000E+00  0.45600000000E+02  0.45600000000E+02  0.00000000000E+00 0. -1.
         11   -1    0    0    0    0 -0.00000000000E+00 -0.00000000000E+00 -0.45600000000E+02  0.45600000000E+02  0.00000000000E+00 0. -1.
        -11    1    1    2    0    0  0.47993955173E+00  0.59226710289E+00  0.44189942875E+02  0.44196517664E+02  0.00000000000E+00 0. -1.
         11    1    1    2    0    0 -0.10047585072E+01  0.10927091389E+01 -0.39121027288E+02  0.39149180438E+02  0.00000000000E+00 0. -1.
        -15    1    1    2    0    0  0.59932049785E+00 -0.31310053955E+01 -0.25727281713E+01  0.44653151164E+01  0.17770000000E+01 0. -1.
         15    1    1    2    0    0 -0.74501542356E-01  0.14460291536E+01 -0.24961874158E+01  0.33889867819E+01  0.17770000000E+01 0. -1.
</event>
<event>
 6    1  0.3691007E-002  0.4730998E+02  0.7546771E-02  0.1309937E+00
        -11   -1    0    0    0    0  0.00000000000E+00  0.00000000000E+00  0.45600000000E+02  0.45600000000E+02  0.00000000000E+00 0. -1.
         11   -1    0    0    0    0 -0.00000000000E+00 -0.00000000000E+00 -0.45600000000E+02  0.45600000000E+02  0.00000000000E+00 0.  1.
        -11    1    1    2    0    0  0.17269440893E+01 -0.53185578340E+00  0.39675251938E+02  0.39716379780E+02  0.00000000000E+00 0. -1.
         11    1    1    2    0    0  0.17982960547E+01  0.20220628096E+01 -0.43806519697E+02  0.43890019078E+02  0.00000000000E+00 0.  1.
        -15    1    1    2    0    0 -0.33209606641E+01 -0.22460854696E+01  0.24398644406E+01  0.50184008566E+01  0.17770000000E+01 0. -1.
         15    1    1    2    0    0 -0.20427947994E+00  0.75587844342E+00  0.16914033181E+01  0.25752002858E+01  0.17770000000E+01 0. -1.
</event>
<event>
 6    1  0.3691007E-002  0.5527027E+02  0.7546771E-02  0.1276559E+00
        -11   -1    0    0    0    0  0.00000000000E+00  0.00000000000E+00  0.45600000000E+02  0.45600000000E+02  0.00000000000E+00 0.  1.
         11   -1    0    0    0    0 -0.00000000000E+00 -0.00000000000E+00 -0.45600000000E+02  0.45600000000E+02  0.00000000000E+00 0. -1.
        -11    1    1    2    0    0  0.81769871073E+00  0.90187989321E+00  0.31639527475E+02  0.31662939177E+02  0.00000000000E+00 0.  1.
         11    1    1    2    0    0 -0.13422756486E+01  0.11832783644E+01 -0.35885147816E+02  0.35929732610E+02  0.00000000000E+00 0. -1.
        -15    1    1    2    0    0  0.38105292680E+01 -0.50253278590E+01  0.12482122041E+02  0.14097345603E+02  0.17770000000E+01 0.  1.
         15    1    1    2    0    0 -0.32859523301E+01  0.29401696013E+01 -0.82365016996E+01  0.95099826103E+01  0.17770000000E+01 0. -1.
</event>
<event>
 6    1  0.3691007E-002  0.4843225E+02  0.7546771E-02  0.1304791E+00
        -11   -1    0    0    0    0  0.00000000000E+00  0.00000000000E+00  0.45600000000E+02  0.45600000000E+02  0.00000000000E+00 0. -1.
         11   -1    0    0    0    0 -0.00000000000E+00 -0.00000000000E+00 -0.45600000000E+02  0.45600000000E+02  0.00000000000E+00 0.  1.
        -11    1    1    2    0    0 -0.32741469780E+01  0.17924772581E+01  0.23770654010E+02  0.24061941011E+02  0.00000000000E+00 0. -1.
         11    1    1    2    0    0  0.38111719345E+00  0.94534912727E+00 -0.42755604448E+02  0.42767752419E+02  0.00000000000E+00 0.  1.
        -15    1    1    2    0    0  0.43897672396E+01 -0.38533397707E+01  0.20493752096E+02  0.21383869803E+02  0.17770000000E+01 0. -1.
         15    1    1    2    0    0 -0.14967374550E+01  0.11155133853E+01 -0.15088016574E+01  0.29864367671E+01  0.17770000000E+01 0.  1.
</event>
<event>
 6    1  0.3691007E-002  0.4749729E+02  0.7546771E-02  0.1309067E+00
        -11   -1    0    0    0    0  0.00000000000E+00  0.00000000000E+00  0.45600000000E+02  0.45600000000E+02  0.00000000000E+00 0.  1.
         11   -1    0    0    0    0 -0.00000000000E+00 -0.00000000000E+00 -0.45600000000E+02  0.45600000000E+02  0.00000000000E+00 0.  1.
        -11    1    1    2    0    0 -0.44970625040E+01  0.23792520616E+00  0.43470065175E+02  0.43702708679E+02  0.00000000000E+00 0.  1.
         11    1    1    2    0    0 -0.63793374761E+00 -0.14206685588E+01 -0.35312462786E+02  0.35346786086E+02  0.00000000000E+00 0.  1.
        -15    1    1    2    0    0  0.19777789826E+01  0.36333252785E+01 -0.51595754806E+01  0.68477449151E+01  0.17770000000E+01 0. -1.
         15    1    1    2    0    0  0.31572172690E+01 -0.24505819258E+01 -0.29980269091E+01  0.53027603195E+01  0.17770000000E+01 0.  1.
</event>
<event>
 6    1  0.3691007E-002  0.4636616E+02  0.7546771E-02  0.1314394E+00
        -11   -1    0    0    0    0  0.00000000000E+00  0.00000000000E+00  0.45600000000E+02  0.45600000000E+02  0.00000000000E+00 0.  1.
         11   -1    0    0    0    0 -0.00000000000E+00 -0.00000000000E+00 -0.45600000000E+02  0.45600000000E+02  0.00000000000E+00 0. -1.
        -11    1    1    2    0    0 -0.18543327637E+01 -0.16401875194E+01  0.31066429446E+02  0.31164913021E+02  0.00000000000E+00 0.  1.
         11    1    1    2    0    0  0.35264328477E+00 -0.87356369184E+00 -0.44823945037E+02  0.44833843461E+02  0.00000000000E+00 0. -1.
        -15    1    1    2    0    0  0.84359747064E+00  0.41460277421E+00  0.12260898601E+01  0.23546926547E+01  0.17770000000E+01 0. -1.
         15    1    1    2    0    0  0.65809200829E+00  0.20991484370E+01  0.12531425731E+02  0.12846550864E+02  0.17770000000E+01 0.  1.
</event>
<event>
 6    1  0.3691007E-002  0.4806560E+02  0.7546771E-02  0.1306455E+00
        -11   -1    0    0    0    0  0.00000000000E+00  0.00000000000E+00  0.45600000000E+02  0.45600000000E+02  0.00000000000E+00 0. -1.
         11   -1    0    0    0    0 -0.00000000000E+00 -0.00000000000E+00 -0.45600000000E+02  0.45600000000E+02  0.00000000000E+00 0.  1.
        -11    1    1    2    0    0 -0.61943468814E-01 -0.10013407847E+01  0.43122736111E+02  0.43134404946E+02  0.00000000000E+00 0. -1.
         11    1    1    2    0    0 -0.23403593856E+01  0.26929046810E+01 -0.32584110305E+02  0.32778853885E+02  0.00000000000E+00 0.  1.
        -15    1    1    2    0    0  0.37040619131E+01  0.18123703238E+00  0.24761640637E+00  0.41197044072E+01  0.17770000000E+01 0.  1.
         15    1    1    2    0    0 -0.13017590587E+01 -0.18728009287E+01 -0.10786242212E+02  0.11167036761E+02  0.17770000000E+01 0. -1.
</event>
<event>
 6    1  0.3691007E-002  0.4822677E+02  0.7546771E-02  0.1305721E+00
        -11   -1    0    0    0    0  0.00000000000E+00  0.00000000000E+00  0.45600000000E+02  0.45600000000E+02  0.00000000000E+00 0.  1.
         11   -1    0    0    0    0 -0.00000000000E+00 -0.00000000000E+00 -0.45600000000E+02  0.45600000000E+02  0.00000000000E+00 0.  1.
        -11    1    1    2    0    0  0.35784061247E+01 -0.91077772571E-01  0.34198499847E+02  0.34385326483E+02  0.00000000000E+00 0.  1.
         11    1    1    2    0    0  0.17911872601E+01 -0.16917135896E+01 -0.42902548128E+02  0.42973234490E+02  0.00000000000E+00 0.  1.
        -15    1    1    2    0    0 -0.63848055546E+01  0.22490631600E+01  0.93188075679E+01  0.11654266624E+02  0.17770000000E+01 0.  1.
         15    1    1    2    0    0  0.10152121698E+01 -0.46627179789E+00 -0.61475928672E+00  0.21871724029E+01  0.17770000000E+01 0.  1.
</event>
<event>
 6    1  0.3691007E-002  0.4668031E+02  0.7546771E-02  0.1312897E+00
        -11   -1    0    0    0    0  0.00000000000E+00  0.00000000000E+00  0.45600000000E+02  0.45600000000E+02  0.00000000000E+00 0.  1.
         11   -1    0    0    0    0 -0.00000000000E+00 -0.00000000000E+00 -0.45600000000E+02  0.45600000000E+02  0.00000000000E+00 0. -1.
        -11    1    1    2    0    0  0.65981615196E+00  0.27936425046E+00  0.36887737440E+02  0.36894695759E+02  0.00000000000E+00 0.  1.
         11    1    1    2    0    0  0.33577546239E-01 -0.10089067788E+01 -0.44508239217E+02  0.44519685292E+02  0.00000000000E+00 0. -1.
        -15    1    1    2    0    0  0.11001137071E+01 -0.13222332466E+01  0.16096162091E+01  0.29507870590E+01  0.17770000000E+01 0. -1.
         15    1    1    2    0    0 -0.17935074053E+01  0.20517757749E+01  0.60108855681E+01  0.68348318894E+01  0.17770000000E+01 0. -1.
</event>
<event>
 6    1  0.3691007E-002  0.4782253E+02  0.7546771E-02  0.1307567E+00
        -11   -1    0    0    0    0  0.00000000000E+00  0.00000000000E+00  0.45600000000E+02  0.45600000000E+02  0.00000000000E+00 0. -1.
         11   -1    0    0    0    0 -0.00000000000E+00 -0.00000000000E+00 -0.45600000000E+02  0.45600000000E+02  0.00000000000E+00 0.  1.
        -11    1    1    2    0    0  0.93890039148E-01 -0.16537932038E+01  0.43345828826E+02  0.43377467928E+02  0.00000000000E+00 0. -1.
         11    1    1    2    0    0 -0.30271083462E+01 -0.30506299198E+01 -0.33778449829E+02  0.34050747432E+02  0.00000000000E+00 0.  1.
        -15    1    1    2    0    0  0.21865593105E+01  0.10486609740E+01  0.35100533049E+00  0.30268242761E+01  0.17770000000E+01 0. -1.
         15    1    1    2    0    0  0.74665899659E+00  0.36557621495E+01 -0.99183843274E+01  0.10744960364E+02  0.17770000000E+01 0. -1.
</event>
<event>
 6    1  0.3691007E-002  0.4612026E+02  0.7546771E-02  0.1315575E+00
        -11   -1    0    0    0    0  0.00000000000E+00  0.00000000000E+00  0.45600000000E+02  0.45600000000E+02  0.00000000000E+00 0.  1.
         11   -1    0    0    0    0 -0.00000000000E+00 -0.00000000000E+00 -0.45600000000E+02  0.45600000000E+02  0.00000000000E+00 0.  1.
        -11    1    1    2    0    0  0.16040424040E+01 -0.86112968113E+00  0.26888375508E+02  0.26949939402E+02  0.00000000000E+00 0.  1.
         11    1    1    2    0    0 -0.60316171173E+00 -0.21332416961E+01 -0.45025198208E+02  0.45079740437E+02  0.00000000000E+00 0.  1.
        -15    1    1    2    0    0  0.37055626957E+00  0.33908160867E+01  0.98062513294E+01  0.10533529314E+02  0.17770000000E+01 0.  1.
         15    1    1    2    0    0 -0.13714369618E+01 -0.39644470945E+00  0.83305713713E+01  0.86367908461E+01  0.17770000000E+01 0.  1.
</event>
<event>
 6    1  0.3691007E-002  0.4811917E+02  0.7546771E-02  0.1306211E+00
        -11   -1    0    0    0    0  0.00000000000E+00  0.00000000000E+00  0.45600000000E+02  0.45600000000E+02  0.00000000000E+00 0.  1.
         11   -1    0    0    0    0 -0.00000000000E+00 -0.00000000000E+00 -0.45600000000E+02  0.45600000000E+02  0.00000000000E+00 0. -1.
        -11    1    1    2    0    0 -0.29690186755E+01 -0.54245302791E+01  0.42634692135E+02  0.43080826061E+02  0.00000000000E+00 0.  1.
         11    1    1    2    0    0  0.31179181752E+00 -0.44558282196E+00 -0.27837800222E+02  0.27843111884E+02  0.00000000000E+00 0. -1.
        -15    1    1    2    0    0  0.46700252060E+01  0.27112093526E+01 -0.15084621871E+02  0.16120277217E+02  0.17770000000E+01 0. -1.
         15    1    1    2    0    0 -0.20127983480E+01  0.31589037485E+01  0.28772995791E+00  0.41557848369E+01  0.17770000000E+01 0.  1.
</event>
<event>
 6    1  0.3691007E-002  0.4747697E+02  0.7546771E-02  0.1309161E+00
        -11   -1    0    0    0    0  0.00000000000E+00  0.00000000000E+00  0.45600000000E+02  0.45600000000E+02  0.00000000000E+00 0.  1.
         11   -1    0    0    0    0 -0.00000000000E+00 -0.00000000000E+00 -0.45600000000E+02  0.45600000000E+02  0.00000000000E+00 0. -1.
        -11    1    1    2    0    0 -0.17498209004E+01  0.66637696712E-01  0.43687950945E+02  0.43723030219E+02  0.00000000000E+00 0.  1.
         11    1    1    2    0    0 -0.17566864235E+01  0.40554065943E+01 -0.35170491610E+02  0.35447083800E+02  0.00000000000E+00 0. -1.
        -15    1    1    2    0    0 -0.52217658229E+00  0.21865637297E+00 -0.38668353404E+01  0.42930902090E+01  0.17770000000E+01 0.  1.
         15    1    1    2    0    0  0.40286839062E+01 -0.43407006639E+01 -0.46506239947E+01  0.77367957715E+01  0.17770000000E+01 0. -1.
</event>
<event>
 6    1  0.3691007E-002  0.4629728E+02  0.7546771E-02  0.1314724E+00
        -11   -1    0    0    0    0  0.00000000000E+00  0.00000000000E+00  0.45600000000E+02  0.45600000000E+02  0.00000000000E+00 0.  1.
         11   -1    0    0    0    0 -0.00000000000E+00 -0.00000000000E+00 -0.45600000000E+02  0.45600000000E+02  0.00000000000E+00 0. -1.
        -11    1    1    2    0    0 -0.63670720389E+00  0.38806558890E+00  0.38800681676E+02  0.38807845720E+02  0.00000000000E+00 0.  1.
         11    1    1    2    0    0  0.15715474160E+01  0.48349149649E+00 -0.44872603084E+02  0.44902717432E+02  0.00000000000E+00 0. -1.
        -15    1    1    2    0    0  0.25812495019E+00 -0.80097131120E+00  0.42306655615E+01  0.46652377886E+01  0.17770000000E+01 0.  1.
         15    1    1    2    0    0 -0.11929651623E+01 -0.70585774196E-01  0.18412558466E+01  0.28241990586E+01  0.17770000000E+01 0. -1.
</event>
<event>
 6    1  0.3691007E-002  0.4614822E+02  0.7546771E-02  0.1315440E+00
        -11   -1    0    0    0    0  0.00000000000E+00  0.00000000000E+00  0.45600000000E+02  0.45600000000E+02  0.00000000000E+00 0. -1.
         11   -1    0    0    0    0 -0.00000000000E+00 -0.00000000000E+00 -0.45600000000E+02  0.45600000000E+02  0.00000000000E+00 0.  1.
        -11    1    1    2    0    0 -0.57393156907E+00  0.34794299095E+00  0.12698150747E+02  0.12715875674E+02  0.00000000000E+00 0. -1.
         11    1    1    2    0    0 -0.58173465526E+01  0.17021705297E+01 -0.44642177113E+02  0.45051780018E+02  0.00000000000E+00 0.  1.
        -15    1    1    2    0    0  0.33055453937E+01  0.22444519018E+00  0.25165311904E+02  0.25444599785E+02  0.17770000000E+01 0. -1.
         15    1    1    2    0    0  0.30857327280E+01 -0.22745587108E+01  0.67787144620E+01  0.79877445224E+01  0.17770000000E+01 0.  1.
</event>
<event>
 6    1  0.3691007E-002  0.3793872E+02  0.7546771E-02  0.1360513E+00
        -11   -1    0    0    0    0  0.00000000000E+00  0.00000000000E+00  0.45600000000E+02  0.45600000000E+02  0.00000000000E+00 0.  1.
         11   -1    0    0    0    0 -0.00000000000E+00 -0.00000000000E+00 -0.45600000000E+02  0.45600000000E+02  0.00000000000E+00 0. -1.
        -11    1    1    2    0    0  0.43692243086E+00  0.80574040859E+00  0.38167566313E+02  0.38178570390E+02  0.00000000000E+00 0.  1.
         11    1    1    2    0    0  0.55665771548E+00  0.36862435142E+00 -0.37709929594E+02  0.37715839400E+02  0.00000000000E+00 0. -1.
        -15    1    1    2    0    0  0.20449998158E+01  0.37882504057E+01 -0.56393063136E+01  0.73138478301E+01  0.17770000000E+01 0. -1.
         15    1    1    2    0    0 -0.30385799621E+01 -0.49626151657E+01  0.51816695945E+01  0.79917423792E+01  0.17770000000E+01 0.  1.
</event>
<event>
 6    1  0.3691007E-002  0.4715316E+02  0.7546771E-02  0.1310669E+00
        -11   -1    0    0    0    0  0.00000000000E+00  0.00000000000E+00  0.45600000000E+02  0.45600000000E+02  0.00000000000E+00 0.  1.
         11   -1    0    0    0    0 -0.00000000000E+00 -0.00000000000E+00 -0.45600000000E+02  0.45600000000E+02  0.00000000000E+00 0. -1.
        -11    1    1    2    0    0 -0.63620474112E+00 -0.30888333046E+01  0.43933798131E+02  0.44046841724E+02  0.00000000000E+00 0.  1.
         11    1    1    2    0    0 -0.34055897977E+01  0.78300427692E+00 -0.20665216034E+02  0.20958585145E+02  0.00000000000E+00 0. -1.
        -15    1    1    2    0    0  0.63925019806E+01  0.28358706310E+01 -0.86117045743E+01  0.11235009056E+02  0.17770000000E+01 0.  1.
         15    1    1    2    0    0 -0.23507074418E+01 -0.53004160337E+00 -0.14656877523E+02  0.14959564074E+02  0.17770000000E+01 0. -1.
</event>
<event>
 6    1  0.3691007E-002  0.4746727E+02  0.7546771E-02  0.1309206E+00
        -11   -1    0    0    0    0  0.00000000000E+00  0.00000000000E+00  0.45600000000E+02  0.45600000000E+02  0.00000000000E+00 0. -1.
         11   -1    0    0    0    0 -0.00000000000E+00 -0.00000000000E+00 -0.45600000000E+02  0.45600000000E+02  0.00000000000E+00 0. -1.
        -11    1    1    2    0    0  0.17579786012E+01 -0.14378728765E+01  0.37708360800E+02  0.37776691774E+02  0.00000000000E+00 0. -1.
         11    1    1    2    0    0 -0.95402805627E+00 -0.55824638063E+00 -0.43718759954E+02  0.43732731226E+02  0.00000000000E+00 0. -1.
        -15    1    1    2    0    0 -0.17013097630E+01 -0.80185595066E+00  0.56790453550E+01  0.62407301672E+01  0.17770000000E+01 0. -1.
         15    1    1    2    0    0  0.89735921807E+00  0.27979752078E+01  0.33135379948E+00  0.34498468328E+01  0.17770000000E+01 0.  1.
</event>
<event>
 6    1  0.3691007E-002  0.4686463E+02  0.7546771E-02  0.1312025E+00
        -11   -1    0    0    0    0  0.00000000000E+00  0.00000000000E+00  0.45600000000E+02  0.45600000000E+02  0.00000000000E+00 0. -1.
         11   -1    0    0    0    0 -0.00000000000E+00 -0.00000000000E+00 -0.45600000000E+02  0.45600000000E+02  0.00000000000E+00 0. -1.
        -11    1    1    2    0    0 -0.29576010312E+01  0.13031196891E+01  0.44217407820E+02  0.44335366008E+02  0.00000000000E+00 0. -1.
         11    1    1    2    0    0 -0.70961128503E+00  0.42753272496E+01 -0.13103244070E+02  0.13801339661E+02  0.00000000000E+00 0. -1.
        -15    1    1    2    0    0 -0.17774332311E+01 -0.32685687483E+01 -0.19266269359E+02  0.19702529649E+02  0.17770000000E+01 0.  1.
         15    1    1    2    0    0  0.54446455473E+01 -0.23098781904E+01 -0.11847894391E+02  0.13360764682E+02  0.17770000000E+01 0. -1.
</event>
<event>
 6    1  0.3691007E-002  0.4693762E+02  0.7546771E-02  0.1311681E+00
        -11   -1    0    0    0    0  0.00000000000E+00  0.00000000000E+00  0.45600000000E+02  0.45600000000E+02  0.00000000000E+00 0. -1.
         11   -1    0    0    0    0 -0.00000000000E+00 -0.00000000000E+00 -0.45600000000E+02  0.45600000000E+02  0.00000000000E+00 0. -1.
        -11    1    1    2    0    0 -0.22904528925E+00 -0.12758592353E+01  0.31813159290E+02  0.31839556883E+02  0.00000000000E+00 0. -1.
         11    1    1    2    0    0  0.61330101653E+00 -0.99276858371E+00 -0.44246999644E+02  0.44262384765E+02  0.00000000000E+00 0. -1.
        -15    1    1    2    0    0  0.35570856022E+00  0.75430946440E+00 -0.42466964616E+00  0.20083786138E+01  0.17770000000E+01 0. -1.
         15    1    1    2    0    0 -0.73996428750E+00  0.15143183546E+01  0.12858510000E+02  0.13089679738E+02  0.17770000000E+01 0. -1.
</event>
<event>
 6    1  0.3691007E-002  0.4873714E+02  0.7546771E-02  0.1303421E+00
        -11   -1    0    0    0    0  0.00000000000E+00  0.00000000000E+00  0.45600000000E+02  0.45600000000E+02  0.00000000000E+00 0.  1.
         11   -1    0    0    0    0 -0.00000000000E+00 -0.00000000000E+00 -0.45600000000E+02  0.45600000000E+02  0.00000000000E+00 0. -1.
        -11    1    1    2    0    0  0.82309787446E+00  0.63867691525E+00  0.41591690885E+02  0.41604737098E+02  0.00000000000E+00 0.  1.
         11    1    1    2    0    0 -0.11588369573E+01  0.33484686642E+00 -0.42445725293E+02  0.42462861670E+02  0.00000000000E+00 0. -1.
        -15    1    1    2    0    0 -0.17244075742E+01 -0.47084035615E+00  0.27867265323E+01  0.37575052746E+01  0.17770000000E+01 0.  1.
         15    1    1    2    0    0  0.20601466571E+01 -0.50268342553E+00 -0.19326921244E+01  0.33748959573E+01  0.17770000000E+01 0.  1.
</event>
<event>
 6    1  0.3691007E-002  0.4587956E+02  0.7546771E-02  0.1316739E+00
        -11   -1    0    0    0    0  0.00000000000E+00  0.00000000000E+00  0.45600000000E+02  0.45600000000E+02  0.00000000000E+00 0.  1.
         11   -1    0    0    0    0 -0.00000000000E+00 -0.00000000000E+00 -0.45600000000E+02  0.45600000000E+02  0.00000000000E+00 0. -1.
        -11    1    1    2    0    0 -0.62377541043E+00  0.44510628809E+00  0.56525059129E+01  0.57042123440E+01  0.00000000000E+00 0.  1.
         11    1    1    2    0    0  0.18315176664E+01 -0.79934903436E+00 -0.45276356047E+02  0.45320435045E+02  0.00000000000E+00 0. -1.
        -15    1    1    2    0    0 -0.17979316272E+01  0.25338996666E+01  0.17225195315E+02  0.17593131851E+02  0.17770000000E+01 0. -1.
         15    1    1    2    0    0  0.59018937124E+00 -0.21796569203E+01  0.22398654818E+02  0.22582220760E+02  0.17770000000E+01 0.  1.
</event>
<event>
 6    1  0.3691007E-002  0.4765332E+02  0.7546771E-02  0.1308346E+00
        -11   -1    0    0    0    0  0.00000000000E+00  0.00000000000E+00  0.45600000000E+02  0.45600000000E+02  0.00000000000E+00 0. -1.
         11   -1    0    0    0    0 -0.00000000000E+00 -0.00000000000E+00 -0.45600000000E+02  0.45600000000E+02  0.00000000000E+00 0. -1.
        -11    1    1    2    0    0 -0.83993562475E-01  0.58642754089E+00  0.43542653893E+02  0.43546683688E+02  0.00000000000E+00 0. -1.
         11    1    1    2    0    0  0.44660150915E+00 -0.29049192767E+01 -0.28940466129E+02  0.29089320870E+02  0.00000000000E+00 0. -1.
        -15    1    1    2    0    0  0.32858646385E+01 -0.13708700959E+01 -0.13174082139E+01  0.41915969087E+01  0.17770000000E+01 0.  1.
         15    1    1    2    0    0 -0.36484725852E+01  0.36893618318E+01 -0.13284779549E+02  0.14372398534E+02  0.17770000000E+01 0. -1.
</event>
<event>
 6    1  0.3691007E-002  0.4681210E+02  0.7546771E-02  0.1312273E+00
        -11   -1    0    0    0    0  0.00000000000E+00  0.00000000000E+00  0.45600000000E+02  0.45600000000E+02  0.00000000000E+00 0. -1.
         11   -1    0    0    0    0 -0.00000000000E+00 -0.00000000000E+00 -0.45600000000E+02  0.45600000000E+02  0.00000000000E+00 0.  1.
        -11    1    1    2    0    0 -0.18307306148E+00  0.97114434410E+00  0.34573203836E+02  0.34587325144E+02  0.00000000000E+00 0. -1.
         11    1    1    2    0    0  0.54654234652E+00  0.46752347357E+00 -0.44382074058E+02  0.44387901329E+02  0.00000000000E+00 0.  1.
        -15    1    1    2    0    0 -0.17886318751E+01  0.16773574656E+01  0.63785596113E+01  0.70609123892E+01  0.17770000000E+01 0.  1.
         15    1    1    2    0    0  0.14251625900E+01 -0.31160252833E+01  0.34303106099E+01  0.51638611381E+01  0.17770000000E+01 0. -1.
</event>
<event>
 6    1  0.3691007E-002  0.4684615E+02  0.7546771E-02  0.1312112E+00
        -11   -1    0    0    0    0  0.00000000000E+00  0.00000000000E+00  0.45600000000E+02  0.45600000000E+02  0.00000000000E+00 0.  1.
         11   -1    0    0    0    0 -0.00000000000E+00 -0.00000000000E+00 -0.45600000000E+02  0.45600000000E+02  0.00000000000E+00 0. -1.
        -11    1    1    2    0    0  0.63773586615E+00 -0.21734071496E+00  0.44348729722E+02  0.44353847319E+02  0.00000000000E+00 0.  1.
         11    1    1    2    0    0 -0.18449430886E+01 -0.22880074123E+01 -0.39286283090E+02  0.39396076352E+02  0.00000000000E+00 0. -1.
        -15    1    1    2    0    0 -0.46791914522E+00  0.55125510504E+00 -0.61825178929E+00  0.20156375647E+01  0.17770000000E+01 0. -1.
         15    1    1    2    0    0  0.16751263677E+01  0.19540930222E+01 -0.44441948429E+01  0.54344387649E+01  0.17770000000E+01 0.  1.
</event>
<event>
 6    1  0.3691007E-002  0.4125439E+02  0.7546771E-02  0.1340852E+00
        -11   -1    0    0    0    0  0.00000000000E+00  0.00000000000E+00  0.45600000000E+02  0.45600000000E+02  0.00000000000E+00 0.  1.
         11   -1    0    0    0    0 -0.00000000000E+00 -0.00000000000E+00 -0.45600000000E+02  0.45600000000E+02  0.00000000000E+00 0.  1.
        -11    1    1    2    0    0  0.96562636795E+00  0.29191641152E+01  0.42831953863E+02  0.42942173037E+02  0.00000000000E+00 0.  1.
         11    1    1    2    0    0  0.25826548870E+01  0.47734143002E+00 -0.39685720365E+02  0.39772532758E+02  0.00000000000E+00 0.  1.
        -15    1    1    2    0    0 -0.10068038491E+01 -0.28040576909E+00 -0.35135876862E+01  0.40737340137E+01  0.17770000000E+01 0.  1.
         15    1    1    2    0    0 -0.25414774058E+01 -0.31160997761E+01  0.36735418777E+00  0.44115601909E+01  0.17770000000E+01 0. -1.
</event>
<event>
 6    1  0.3691007E-002  0.3888328E+02  0.7546771E-02  0.1354682E+00
        -11   -1    0    0    0    0  0.00000000000E+00  0.00000000000E+00  0.45600000000E+02  0.45600000000E+02  0.00000000000E+00 0.  1.
         11   -1    0    0    0    0 -0.00000000000E+00 -0.00000000000E+00 -0.45600000000E+02  0.45600000000E+02  0.00000000000E+00 0.  1.
        -11    1    1    2    0    0  0.61556041761E+00 -0.59398092529E-01  0.38848724912E+02  0.38853646806E+02  0.00000000000E+00 0.  1.
         11    1    1    2    0    0 -0.12219666144E+01 -0.72144364688E+01 -0.38567213095E+02  0.39255206303E+02  0.00000000000E+00 0.  1.
        -15    1    1    2    0    0 -0.26889835188E+01  0.25276797357E+01 -0.42162409811E+01  0.58782832716E+01  0.17770000000E+01 0.  1.
         15    1    1    2    0    0  0.32953897156E+01  0.47461548256E+01  0.39347291637E+01  0.72128636198E+01  0.17770000000E+01 0. -1.
</event>
<event>
 6    1  0.3691007E-002  0.4887254E+02  0.7546771E-02  0.1302816E+00
        -11   -1    0    0    0    0  0.00000000000E+00  0.00000000000E+00  0.45600000000E+02  0.45600000000E+02  0.00000000000E+00 0.  1.
         11   -1    0    0    0    0 -0.00000000000E+00 -0.00000000000E+00 -0.45600000000E+02  0.45600000000E+02  0.00000000000E+00 0. -1.
        -11    1    1    2    0    0  0.12510475678E+00 -0.10093668277E+01  0.42315240708E+02  0.42327462348E+02  0.00000000000E+00 0.  1.
         11    1    1    2    0    0 -0.54516587398E+00  0.43655870847E+00 -0.39040529142E+02  0.39046775860E+02  0.00000000000E+00 0. -1.
        -15    1    1    2    0    0 -0.22900426984E+01 -0.14295937126E+01 -0.47460638378E+01  0.57420279254E+01  0.17770000000E+01 0. -1.
         15    1    1    2    0    0  0.27101038156E+01  0.20024018318E+01  0.14713522719E+01  0.40837338669E+01  0.17770000000E+01 0.  1.
</event>
<event>
 6    1  0.3691007E-002  0.4761470E+02  0.7546771E-02  0.1308524E+00
        -11   -1    0    0    0    0  0.00000000000E+00  0.00000000000E+00  0.45600000000E+02  0.45600000000E+02  0.00000000000E+00 0. -1.
         11   -1    0    0    0    0 -0.00000000000E+00 -0.00000000000E+00 -0.45600000000E+02  0.45600000000E+02  0.00000000000E+00 0.  1.
        -11    1    1    2    0    0 -0.91914369942E+00 -0.20832371575E+01  0.35957065243E+02  0.36029088846E+02  0.00000000000E+00 0. -1.
         11    1    1    2    0    0 -0.99354768042E+00 -0.14938368526E+01 -0.43548361122E+02  0.43585300755E+02  0.00000000000E+00 0.  1.
        -15    1    1    2    0    0 -0.12821831617E+01  0.36892600822E+00  0.61094602505E+01  0.65010255815E+01  0.17770000000E+01 0. -1.
         15    1    1    2    0    0  0.31948745416E+01  0.32081480018E+01  0.14818356284E+01  0.50845848176E+01  0.17770000000E+01 0.  1.
</event>
<event>
 6    1  0.3691007E-002  0.4611910E+02  0.7546771E-02  0.1315581E+00
        -11   -1    0    0    0    0  0.00000000000E+00  0.00000000000E+00  0.45600000000E+02  0.45600000000E+02  0.00000000000E+00 0.  1.
         11   -1    0    0    0    0 -0.00000000000E+00 -0.00000000000E+00 -0.45600000000E+02  0.45600000000E+02  0.00000000000E+00 0. -1.
        -11    1    1    2    0    0  0.10299441358E+01  0.11940857430E+01  0.32454153576E+02  0.32492440813E+02  0.00000000000E+00 0.  1.
         11    1    1    2    0    0  0.17264357689E+01 -0.85305353252E-01 -0.45047745497E+02  0.45080896529E+02  0.00000000000E+00 0. -1.
        -15    1    1    2    0    0 -0.14245960467E+01  0.99645687353E-01  0.34132095244E+01  0.41045257238E+01  0.17770000000E+01 0.  1.
         15    1    1    2    0    0 -0.13317838580E+01 -0.12084260771E+01  0.91803823972E+01  0.95221369338E+01  0.17770000000E+01 0. -1.
</event>
<event>
 6    1  0.3691007E-002  0.4618332E+02  0.7546771E-02  0.1315271E+00
        -11   -1    0    0    0    0  0.00000000000E+00  0.00000000000E+00  0.45600000000E+02  0.45600000000E+02  0.00000000000E+00 0.  1.
         11   -1    0    0    0    0 -0.00000000000E+00 -0.00000000000E+00 -0.45600000000E+02  0.45600000000E+02  0.00000000000E+00 0. -1.
        -11    1    1    2    0    0 -0.54274732586E+00  0.65906034770E+00  0.45008580036E+02  0.45016677044E+02  0.00000000000E+00 0.  1.
         11    1    1    2    0    0  0.55734099566E+00  0.73504029246E+00 -0.38762227436E+02  0.38773201944E+02  0.00000000000E+00 0. -1.
        -15    1    1    2    0    0 -0.44085063019E+00 -0.82044106260E+00 -0.38592899055E+01  0.43496345123E+01  0.17770000000E+01 0. -1.
         15    1    1    2    0    0  0.42625696038E+00 -0.57365957756E+00 -0.23870626948E+01  0.30604864999E+01  0.17770000000E+01 0.  1.
</event>
<event>
 6    1  0.3691007E-002  0.4639559E+02  0.7546771E-02  0.1314253E+00
        -11   -1    0    0    0    0  0.00000000000E+00  0.00000000000E+00  0.45600000000E+02  0.45600000000E+02  0.00000000000E+00 0. -1.
         11   -1    0    0    0    0 -0.00000000000E+00 -0.00000000000E+00 -0.45600000000E+02  0.45600000000E+02  0.00000000000E+00 0. -1.
        -11    1    1    2    0    0  0.18184595060E+01  0.39388126372E+00  0.20633942755E+02  0.20717662296E+02  0.00000000000E+00 0. -1.
         11    1    1    2    0    0 -0.37724762359E+01  0.11192670444E+01 -0.44631275051E+02  0.44804408805E+02  0.00000000000E+00 0. -1.
        -15    1    1    2    0    0  0.35132745498E+01 -0.40642509706E+01  0.14754700387E+02  0.15802536079E+02  0.17770000000E+01 0. -1.
         15    1    1    2    0    0 -0.15592578200E+01  0.25511026625E+01  0.92426319086E+01  0.98753928196E+01  0.17770000000E+01 0.  1.
</event>
<event>
 6    1  0.3691007E-002  0.4635136E+02  0.7546771E-02  0.1314465E+00
        -11   -1    0    0    0    0  0.00000000000E+00  0.00000000000E+00  0.45600000000E+02  0.45600000000E+02  0.00000000000E+00 0. -1.
         11   -1    0    0    0    0 -0.00000000000E+00 -0.00000000000E+00 -0.45600000000E+02  0.45600000000E+02  0.00000000000E+00 0. -1.
        -11    1    1    2    0    0  0.13755441096E+00  0.16594420316E+01  0.18884821200E+02  0.18958089060E+02  0.00000000000E+00 0. -1.
         11    1    1    2    0    0 -0.13455344265E+01  0.38902215009E+00 -0.44826760453E+02  0.44848637145E+02  0.00000000000E+00 0. -1.
        -15    1    1    2    0    0  0.12769348682E+01  0.26114581562E+01  0.67145053451E+01  0.75294480135E+01  0.17770000000E+01 0.  1.
         15    1    1    2    0    0 -0.68954852671E-01 -0.46599223379E+01  0.19227433908E+02  0.19863825781E+02  0.17770000000E+01 0. -1.
</event>
<event>
 6    1  0.4191371E-002  0.4591850E+02  0.7546771E-02  0.1316551E+00
        -11   -1    0    0    0    0  0.00000000000E+00  0.00000000000E+00  0.45600000000E+02  0.45600000000E+02  0.00000000000E+00 0. -1.
         11   -1    0    0    0    0 -0.00000000000E+00 -0.00000000000E+00 -0.45600000000E+02  0.45600000000E+02  0.00000000000E+00 0. -1.
        -11    1    1    2    0    0 -0.20421061730E+01 -0.83401438537E+00  0.45227743267E+02  0.45281503273E+02  0.00000000000E+00 0. -1.
         11    1    1    2    0    0  0.26931726256E+00 -0.61776956972E+00 -0.90269207186E+01  0.90520422386E+01  0.00000000000E+00 0. -1.
        -15    1    1    2    0    0  0.90134742140E+00  0.42531274353E+00 -0.32205244922E+01  0.38108824580E+01  0.17770000000E+01 0.  1.
         15    1    1    2    0    0  0.87144148903E+00  0.10264712116E+01 -0.32980298056E+02  0.33055572031E+02  0.17770000000E+01 0. -1.
</event>
<event>
 6    1  0.3691007E-002  0.4580449E+02  0.7546771E-02  0.1317104E+00
        -11   -1    0    0    0    0  0.00000000000E+00  0.00000000000E+00  0.45600000000E+02  0.45600000000E+02  0.00000000000E+00 0. -1.
         11   -1    0    0    0    0 -0.00000000000E+00 -0.00000000000E+00 -0.45600000000E+02  0.45600000000E+02  0.00000000000E+00 0. -1.
        -11    1    1    2    0    0 -0.10181360258E+01 -0.67559597008E+00  0.11730107459E+02  0.11793576721E+02  0.00000000000E+00 0. -1.
         11    1    1    2    0    0 -0.82201806904E+00  0.99593364192E+00 -0.45377138574E+02  0.45395509720E+02  0.00000000000E+00 0. -1.
        -15    1    1    2    0    0  0.18856822377E+01  0.61277062740E+00  0.24607838290E+02  0.24751458940E+02  0.17770000000E+01 0. -1.
         15    1    1    2    0    0 -0.45528142857E-01 -0.93310829924E+00  0.90391928253E+01  0.92594546191E+01  0.17770000000E+01 0.  1.
</event>
<event>
 6    1  0.3691007E-002  0.4149166E+02  0.7546771E-02  0.1339528E+00
        -11   -1    0    0    0    0  0.00000000000E+00  0.00000000000E+00  0.45600000000E+02  0.45600000000E+02  0.00000000000E+00 0. -1.
         11   -1    0    0    0    0 -0.00000000000E+00 -0.00000000000E+00 -0.45600000000E+02  0.45600000000E+02  0.00000000000E+00 0.  1.
        -11    1    1    2    0    0 -0.10888431026E+01  0.32522687417E-01  0.40543015171E+02  0.40557646828E+02  0.00000000000E+00 0. -1.
         11    1    1    2    0    0  0.17570304116E+01  0.33113668955E+01 -0.42349775063E+02  0.42515359042E+02  0.00000000000E+00 0.  1.
        -15    1    1    2    0    0 -0.30706081835E+01 -0.42739308196E+00  0.16823040039E+01  0.39495791200E+01  0.17770000000E+01 0. -1.
         15    1    1    2    0    0  0.24024208746E+01 -0.29164965010E+01  0.12445588831E+00  0.41774150102E+01  0.17770000000E+01 0.  1.
</event>
<event>
 6    1  0.3691007E-002  0.4751301E+02  0.7546771E-02  0.1308994E+00
        -11   -1    0    0    0    0  0.00000000000E+00  0.00000000000E+00  0.45600000000E+02  0.45600000000E+02  0.00000000000E+00 0.  1.
         11   -1    0    0    0    0 -0.00000000000E+00 -0.00000000000E+00 -0.45600000000E+02  0.45600000000E+02  0.00000000000E+00 0. -1.
        -11    1    1    2    0    0  0.12971371359E+01  0.52152512642E+00  0.43664615484E+02  0.43686991182E+02  0.00000000000E+00 0.  1.
         11    1    1    2    0    0 -0.41242764594E+01 -0.27393705024E+01 -0.33383823861E+02  0.33748977802E+02  0.00000000000E+00 0. -1.
        -15    1    1    2    0    0 -0.61322593810E+00 -0.17312535530E+01 -0.61625128240E+00  0.26288361605E+01  0.17770000000E+01 0.  1.
         15    1    1    2    0    0  0.34403652616E+01  0.39490989290E+01 -0.96645403400E+01  0.11135194855E+02  0.17770000000E+01 0. -1.
</event>
<event>
 6    1  0.3691007E-002  0.4997642E+02  0.7546771E-02  0.1297967E+00
        -11   -1    0    0    0    0  0.00000000000E+00  0.00000000000E+00  0.45600000000E+02  0.45600000000E+02  0.00000000000E+00 0.  1.
         11   -1    0    0    0    0 -0.00000000000E+00 -0.00000000000E+00 -0.45600000000E+02  0.45600000000E+02  0.00000000000E+00 0.  1.
        -11    1    1    2    0    0 -0.18432402445E+00  0.22186912509E+01  0.41163419783E+02  0.41223581776E+02  0.00000000000E+00 0.  1.
         11    1    1    2    0    0 -0.12712113501E+01  0.17238730478E+00 -0.20692634861E+02  0.20732361977E+02  0.00000000000E+00 0.  1.
        -15    1    1    2    0    0 -0.35095793305E+00 -0.91443060494E+01 -0.19940165453E+02  0.22011574952E+02  0.17770000000E+01 0. -1.
         15    1    1    2    0    0  0.18064933076E+01  0.67532274937E+01 -0.53061946948E+00  0.72324812944E+01  0.17770000000E+01 0.  1.
</event>
<event>
 6    1  0.3691007E-002  0.4149740E+02  0.7546771E-02  0.1339496E+00
        -11   -1    0    0    0    0  0.00000000000E+00  0.00000000000E+00  0.45600000000E+02  0.45600000000E+02  0.00000000000E+00 0. -1.
         11   -1    0    0    0    0 -0.00000000000E+00 -0.00000000000E+00 -0.45600000000E+02  0.45600000000E+02  0.00000000000E+00 0.  1.
        -11    1    1    2    0    0  0.96005834882E+00 -0.29839062065E+00  0.40600096603E+02  0.40612542313E+02  0.00000000000E+00 0. -1.
         11    1    1    2    0    0 -0.41415804945E+01 -0.22656277874E-01 -0.42257915715E+02  0.42460389104E+02  0.00000000000E+00 0.  1.
        -15    1    1    2    0    0  0.38399167864E+01 -0.77049979859E+00 -0.12592034174E+01  0.44812892244E+01  0.17770000000E+01 0.  1.
         15    1    1    2    0    0 -0.65839464072E+00  0.10915466971E+01  0.29170225294E+01  0.36457793587E+01  0.17770000000E+01 0. -1.
</event>
<event>
 6    1  0.3691007E-002  0.5021413E+02  0.7546771E-02  0.1296941E+00
        -11   -1    0    0    0    0  0.00000000000E+00  0.00000000000E+00  0.45600000000E+02  0.45600000000E+02  0.00000000000E+00 0. -1.
         11   -1    0    0    0    0 -0.00000000000E+00 -0.00000000000E+00 -0.45600000000E+02  0.45600000000E+02  0.00000000000E+00 0.  1.
        -11    1    1    2    0    0  0.18724279996E+00  0.84970325124E+00  0.39422743034E+02  0.39432343625E+02  0.00000000000E+00 0. -1.
         11    1    1    2    0    0  0.42644583061E+00  0.37255807624E+00 -0.40981954050E+02  0.40985866019E+02  0.00000000000E+00 0.  1.
        -15    1    1    2    0    0 -0.11591912392E+01 -0.10582179768E+01  0.57362251052E+01  0.62068959290E+01  0.17770000000E+01 0.  1.
         15    1    1    2    0    0  0.54550260861E+00 -0.16404335070E+00 -0.41770140885E+01  0.45748944264E+01  0.17770000000E+01 0.  1.
</event>
<event>
 6    1  0.3691007E-002  0.4583507E+02  0.7546771E-02  0.1316956E+00
        -11   -1    0    0    0    0  0.00000000000E+00  0.00000000000E+00  0.45600000000E+02  0.45600000000E+02  0.00000000000E+00 0. -1.
         11   -1    0    0    0    0 -0.00000000000E+00 -0.00000000000E+00 -0.45600000000E+02  0.45600000000E+02  0.00000000000E+00 0. -1.
        -11    1    1    2    0    0 -0.30144569878E+01  0.28179200881E+00  0.45263787356E+02  0.45364929224E+02  0.00000000000E+00 0. -1.
         11    1    1    2    0    0  0.11715895782E-02 -0.82068129963E+00 -0.19733358234E+02  0.19750416359E+02  0.00000000000E+00 0. -1.
        -15    1    1    2    0    0  0.21436507133E+01  0.74598133635E-01 -0.19993456748E+02  0.20186551092E+02  0.17770000000E+01 0.  1.
         15    1    1    2    0    0  0.86963468490E+00  0.46429115719E+00 -0.55369723740E+01  0.58981033252E+01  0.17770000000E+01 0. -1.
</event>
<event>
 6    1  0.3691007E-002  0.4674684E+02  0.7546771E-02  0.1312582E+00
        -11   -1    0    0    0    0  0.00000000000E+00  0.00000000000E+00  0.45600000000E+02  0.45600000000E+02  0.00000000000E+00 0. -1.
         11   -1    0    0    0    0 -0.00000000000E+00 -0.00000000000E+00 -0.45600000000E+02  0.45600000000E+02  0.00000000000E+00 0.  1.
        -11    1    1    2    0    0 -0.90533671503E+00  0.27105163779E+01  0.31590000017E+02  0.31718994856E+02  0.00000000000E+00 0. -1.
         11    1    1    2    0    0  0.53905045088E+00 -0.28525817413E+00 -0.44448980700E+02  0.44453164487E+02  0.00000000000E+00 0.  1.
        -15    1    1    2    0    0  0.25747622672E+01 -0.34821528797E+01  0.87738478092E+01  0.99444921333E+01  0.17770000000E+01 0. -1.
         15    1    1    2    0    0 -0.22084760031E+01  0.10568946759E+01  0.40851328746E+01  0.50833485239E+01  0.17770000000E+01 0. -1.
</event>
<event>
 6    1  0.3691007E-002  0.4655712E+02  0.7546771E-02  0.1313482E+00
        -11   -1    0    0    0    0  0.00000000000E+00  0.00000000000E+00  0.45600000000E+02  0.45600000000E+02  0.00000000000E+00 0.  1.
         11   -1    0    0    0    0 -0.00000000000E+00 -0.00000000000E+00 -0.45600000000E+02  0.45600000000E+02  0.00000000000E+00 0. -1.
        -11    1    1    2    0    0  0.22643879099E+01 -0.90845151262E+00  0.83499107766E+01  0.86990658541E+01  0.00000000000E+00 0.  1.
         11    1    1    2    0    0 -0.46394877053E+01 -0.16381490565E+01 -0.44370920366E+02  0.44642882440E+02  0.00000000000E+00 0. -1.
        -15    1    1    2    0    0  0.64054249273E+01  0.22882099844E+00  0.21725521879E+02  0.22720868326E+02  0.17770000000E+01 0.  1.
         15    1    1    2    0    0 -0.40303251320E+01  0.23177795707E+01  0.14295487710E+02  0.15137183380E+02  0.17770000000E+01 0. -1.
</event>
<event>
 6    1  0.3691007E-002  0.4997177E+02  0.7546771E-02  0.1297987E+00
        -11   -1    0    0    0    0  0.00000000000E+00  0.00000000000E+00  0.45600000000E+02  0.45600000000E+02  0.00000000000E+00 0. -1.
         11   -1    0    0    0    0 -0.00000000000E+00 -0.00000000000E+00 -0.45600000000E+02  0.45600000000E+02  0.00000000000E+00 0. -1.
        -11    1    1    2    0    0  0.99728161286E-01 -0.10753243504E+01  0.40240413840E+02  0.40254902486E+02  0.00000000000E+00 0. -1.
         11    1    1    2    0    0  0.41292878934E+00 -0.38249175011E+00 -0.41224387775E+02  0.41228230104E+02  0.00000000000E+00 0. -1.
        -15    1    1    2    0    0  0.61740496726E+00  0.50604461426E+01  0.12282395587E+01  0.55367504431E+01  0.17770000000E+01 0. -1.
         15    1    1    2    0    0 -0.11300619179E+01 -0.36026300420E+01 -0.24426562418E+00  0.41801169664E+01  0.17770000000E+01 0.  1.
</event>
<event>
 6    1  0.3691007E-002  0.4858806E+02  0.7546771E-02  0.1304089E+00
        -11   -1    0    0    0    0  0.00000000000E+00  0.00000000000E+00  0.45600000000E+02  0.45600000000E+02  0.00000000000E+00 0. -1.
         11   -1    0    0    0    0 -0.00000000000E+00 -0.00000000000E+00 -0.45600000000E+02  0.45600000000E+02  0.00000000000E+00 0. -1.
        -11    1    1    2    0    0  0.79466857568E+00 -0.11331269529E+01  0.14348349104E+02  0.14414943525E+02  0.00000000000E+00 0. -1.
         11    1    1    2    0    0  0.19243589021E+01 -0.52370665293E+01 -0.42245082549E+02  0.42611935212E+02  0.00000000000E+00 0. -1.
        -15    1    1    2    0    0 -0.54128460481E+00  0.44273394323E+01  0.29852488856E+02  0.30236123153E+02  0.17770000000E+01 0.  1.
         15    1    1    2    0    0 -0.21777428730E+01  0.19428540498E+01 -0.19557554110E+01  0.39369981086E+01  0.17770000000E+01 0.  1.
</event>
<event>
 6    1  0.3691007E-002  0.4612268E+02  0.7546771E-02  0.1315563E+00
        -11   -1    0    0    0    0  0.00000000000E+00  0.00000000000E+00  0.45600000000E+02  0.45600000000E+02  0.00000000000E+00 0. -1.
         11   -1    0    0    0    0 -0.00000000000E+00 -0.00000000000E+00 -0.45600000000E+02  0.45600000000E+02  0.00000000000E+00 0. -1.
        -11    1    1    2    0    0  0.58034540840E+00 -0.46375134718E+00  0.31232771517E+02  0.31241604996E+02  0.00000000000E+00 0. -1.
         11    1    1    2    0    0  0.27921003959E+00 -0.10019571174E+01 -0.45065314189E+02  0.45077316017E+02  0.00000000000E+00 0. -1.
        -15    1    1    2    0    0  0.50531642676E+00  0.17467929836E+01  0.10828036533E+02  0.11122532741E+02  0.17770000000E+01 0. -1.
         15    1    1    2    0    0 -0.13648718747E+01 -0.28108451900E+00  0.30045061389E+01  0.37585462456E+01  0.17770000000E+01 0. -1.
</event>
<event>
 6    1  0.3691007E-002  0.5150175E+02  0.7546771E-02  0.1291498E+00
        -11   -1    0    0    0    0  0.00000000000E+00  0.00000000000E+00  0.45600000000E+02  0.45600000000E+02  0.00000000000E+00 0. -1.
         11   -1    0    0    0    0 -0.00000000000E+00 -0.00000000000E+00 -0.45600000000E+02  0.45600000000E+02  0.00000000000E+00 0.  1.
        -11    1    1    2    0    0  0.61350868753E+00 -0.13788718988E+01  0.39669553145E+02  0.39698250935E+02  0.00000000000E+00 0. -1.
         11    1    1    2    0    0 -0.15327421638E+01  0.82893758241E+00 -0.28830923129E+02  0.28883534488E+02  0.00000000000E+00 0.  1.
        -15    1    1    2    0    0 -0.46180367008E+01  0.32760478999E+01  0.35121390440E+01  0.68957669970E+01  0.17770000000E+01 0. -1.
         15    1    1    2    0    0  0.55372701771E+01 -0.27261135836E+01 -0.14350769059E+02  0.15722447579E+02  0.17770000000E+01 0. -1.
</event>
<event>
 6    1  0.3691007E-002  0.4655512E+02  0.7546771E-02  0.1313492E+00
        -11   -1    0    0    0    0  0.00000000000E+00  0.00000000000E+00  0.45600000000E+02  0.45600000000E+02  0.00000000000E+00 0.  1.
         11   -1    0    0    0    0 -0.00000000000E+00 -0.00000000000E+00 -0.45600000000E+02  0.45600000000E+02  0.00000000000E+00 0. -1.
        -11    1    1    2    0    0 -0.18104141925E+01  0.27783732103E+01  0.44521549190E+02  0.44644879880E+02  0.00000000000E+00 0.  1.
         11    1    1    2    0    0  0.11411450267E+00  0.50501444410E+00 -0.30767965518E+02  0.30772321391E+02  0.00000000000E+00 0. -1.
        -15    1    1    2    0    0  0.16694664062E+01  0.68121753939E+00 -0.89711898424E+01  0.93215423405E+01  0.17770000000E+01 0. -1.
         15    1    1    2    0    0  0.26833283576E-01 -0.39646051937E+01 -0.47823938299E+01  0.64612563880E+01  0.17770000000E+01 0. -1.
</event>
<event>
 6    1  0.3691007E-002  0.4627580E+02  0.7546771E-02  0.1314827E+00
        -11   -1    0    0    0    0  0.00000000000E+00  0.00000000000E+00  0.45600000000E+02  0.45600000000E+02  0.00000000000E+00 0. -1.
         11   -1    0    0    0    0 -0.00000000000E+00 -0.00000000000E+00 -0.45600000000E+02  0.45600000000E+02  0.00000000000E+00 0.  1.
        -11    1    1    2    0    0 -0.18630347987E+00 -0.78459783860E+00  0.44916956823E+02  0.44924195184E+02  0.00000000000E+00 0. -1.
         11    1    1    2    0    0  0.48020261836E+00 -0.22055155196E+00 -0.36656739185E+02  0.36660547803E+02  0.00000000000E+00 0.  1.
        -15    1    1    2    0    0  0.70077489335E+00 -0.77216284722E+00 -0.24091033675E+01  0.31699887932E+01  0.17770000000E+01 0. -1.
         15    1    1    2    0    0 -0.99467403184E+00  0.17773122378E+01 -0.58511142700E+01  0.64452682195E+01  0.17770000000E+01 0.  1.
</event>
<event>
 6    1  0.3691007E-002  0.4782100E+02  0.7546771E-02  0.1307574E+00
        -11   -1    0    0    0    0  0.00000000000E+00  0.00000000000E+00  0.45600000000E+02  0.45600000000E+02  0.00000000000E+00 0. -1.
         11   -1    0    0    0    0 -0.00000000000E+00 -0.00000000000E+00 -0.45600000000E+02  0.45600000000E+02  0.00000000000E+00 0. -1.
        -11    1    1    2    0    0  0.11105514111E+01  0.40404928712E+00  0.43362902447E+02  0.43379002857E+02  0.00000000000E+00 0. -1.
         11    1    1    2    0    0 -0.38328267317E+00  0.18330200262E+01 -0.35762734896E+02  0.35811730973E+02  0.00000000000E+00 0. -1.
        -15    1    1    2    0    0 -0.24246312186E+01  0.21975344024E+01 -0.13488381292E+01  0.39604402905E+01  0.17770000000E+01 0. -1.
         15    1    1    2    0    0  0.16973624807E+01 -0.44346037157E+01 -0.62513294212E+01  0.80488258795E+01  0.17770000000E+01 0.  1.
</event>
<event>
 6    1  0.3691007E-002  0.4706316E+02  0.7546771E-02  0.1311091E+00
        -11   -1    0    0    0    0  0.00000000000E+00  0.00000000000E+00  0.45600000000E+02  0.45600000000E+02  0.00000000000E+00 0. -1.
         11   -1    0    0    0    0 -0.00000000000E+00 -0.00000000000E+00 -0.45600000000E+02  0.45600000000E+02  0.00000000000E+00 0. -1.
        -11    1    1    2    0    0 -0.49924844009E+00  0.15999115526E+01  0.44105005396E+02  0.44136837981E+02  0.00000000000E+00 0. -1.
         11    1    1    2    0    0  0.36692775782E+01  0.20743329722E+01 -0.25840707135E+02  0.26182219166E+02  0.00000000000E+00 0. -1.
        -15    1    1    2    0    0  0.30517311718E+00 -0.12899045815E+01 -0.15233775873E+02  0.15394240508E+02  0.17770000000E+01 0.  1.
         15    1    1    2    0    0 -0.34752022553E+01 -0.23843399433E+01 -0.30305223875E+01  0.54867023449E+01  0.17770000000E+01 0. -1.
</event>
<event>
 6    1  0.3691007E-002  0.4786266E+02  0.7546771E-02  0.1307383E+00
        -11   -1    0    0    0    0  0.00000000000E+00  0.00000000000E+00  0.45600000000E+02  0.45600000000E+02  0.00000000000E+00 0. -1.
         11   -1    0    0    0    0 -0.00000000000E+00 -0.00000000000E+00 -0.45600000000E+02  0.45600000000E+02  0.00000000000E+00 0.  1.
        -11    1    1    2    0    0  0.12328090208E+01 -0.47137103971E+00  0.39963361758E+02  0.39985150890E+02  0.00000000000E+00 0. -1.
         11    1    1    2    0    0  0.15981459634E+01  0.14099989589E+01 -0.43284904780E+02  0.43337341282E+02  0.00000000000E+00 0.  1.
        -15    1    1    2    0    0 -0.16370897235E+01 -0.26502322620E+01  0.19817444272E-01  0.35863512846E+01  0.17770000000E+01 0.  1.
         15    1    1    2    0    0 -0.11938652607E+01  0.17116043428E+01  0.33017255776E+01  0.42911565431E+01  0.17770000000E+01 0.  1.
</event>
<event>
 6    1  0.3691007E-002  0.4696742E+02  0.7546771E-02  0.1311541E+00
        -11   -1    0    0    0    0  0.00000000000E+00  0.00000000000E+00  0.45600000000E+02  0.45600000000E+02  0.00000000000E+00 0. -1.
         11   -1    0    0    0    0 -0.00000000000E+00 -0.00000000000E+00 -0.45600000000E+02  0.45600000000E+02  0.00000000000E+00 0.  1.
        -11    1    1    2    0    0  0.97692715441E+00 -0.64088126399E+00  0.44217147531E+02  0.44232581332E+02  0.00000000000E+00 0. -1.
         11    1    1    2    0    0  0.61223478099E+00 -0.27418491950E+00 -0.31213252296E+02  0.31220460082E+02  0.00000000000E+00 0.  1.
        -15    1    1    2    0    0  0.79199031596E+00 -0.18508512574E+01 -0.67756438312E+00  0.27694262097E+01  0.17770000000E+01 0.  1.
         15    1    1    2    0    0 -0.23811522514E+01  0.27659174409E+01 -0.12326330852E+02  0.12977532377E+02  0.17770000000E+01 0.  1.
</event>
<event>
 6    1  0.3691007E-002  0.4651866E+02  0.7546771E-02  0.1313666E+00
        -11   -1    0    0    0    0  0.00000000000E+00  0.00000000000E+00  0.45600000000E+02  0.45600000000E+02  0.00000000000E+00 0.  1.
         11   -1    0    0    0    0 -0.00000000000E+00 -0.00000000000E+00 -0.45600000000E+02  0.45600000000E+02  0.00000000000E+00 0.  1.
        -11    1    1    2    0    0 -0.59262478926E-01  0.61932624767E+00  0.33098632508E+02  0.33104479318E+02  0.00000000000E+00 0.  1.
         11    1    1    2    0    0 -0.30059621881E+00 -0.61041048238E+00 -0.44676156441E+02  0.44681337417E+02  0.00000000000E+00 0.  1.
        -15    1    1    2    0    0  0.10050685414E+01  0.10040263264E+00  0.11320031145E+02  0.11503089915E+02  0.17770000000E+01 0.  1.
         15    1    1    2    0    0 -0.64520984366E+00 -0.10931839793E+00  0.25749278832E+00  0.19110933495E+01  0.17770000000E+01 0.  1.
</event>
<event>
 6    1  0.3691007E-002  0.4137418E+02  0.7546771E-02  0.1340182E+00
        -11   -1    0    0    0    0  0.00000000000E+00  0.00000000000E+00  0.45600000000E+02  0.45600000000E+02  0.00000000000E+00 0. -1.
         11   -1    0    0    0    0 -0.00000000000E+00 -0.00000000000E+00 -0.45600000000E+02  0.45600000000E+02  0.00000000000E+00 0. -1.
        -11    1    1    2    0    0  0.26167073971E+01 -0.21129244070E+01  0.41996541108E+02  0.42130998946E+02  0.00000000000E+00 0. -1.
         11    1    1    2    0    0 -0.54178477936E+00  0.33177989312E+01 -0.40526004737E+02  0.40665198640E+02  0.00000000000E+00 0. -1.
        -15    1    1    2    0    0 -0.96598990543E+00  0.56310993742E+00 -0.40994799807E+01  0.46058326512E+01  0.17770000000E+01 0.  1.
         15    1    1    2    0    0 -0.11089327123E+01 -0.17679844617E+01  0.26289436100E+01  0.37979697631E+01  0.17770000000E+01 0. -1.
</event>
<event>
 6    1  0.3691007E-002  0.4875718E+02  0.7546771E-02  0.1303331E+00
        -11   -1    0    0    0    0  0.00000000000E+00  0.00000000000E+00  0.45600000000E+02  0.45600000000E+02  0.00000000000E+00 0.  1.
         11   -1    0    0    0    0 -0.00000000000E+00 -0.00000000000E+00 -0.45600000000E+02  0.45600000000E+02  0.00000000000E+00 0. -1.
        -11    1    1    2    0    0 -0.18759862358E+01  0.47211124251E+01  0.42137690654E+02  0.42442822721E+02  0.00000000000E+00 0.  1.
         11    1    1    2    0    0  0.63489311083E+00  0.54693201106E-01 -0.34485562792E+02  0.34491449979E+02  0.00000000000E+00 0. -1.
        -15    1    1    2    0    0  0.13634907532E+01 -0.57733694146E+01  0.15653203579E+00  0.61946051294E+01  0.17770000000E+01 0. -1.
         15    1    1    2    0    0 -0.12239762829E+00  0.99756378837E+00 -0.78086598979E+01  0.80711221706E+01  0.17770000000E+01 0. -1.
</event>
<event>
 6    1  0.3691007E-002  0.4788439E+02  0.7546771E-02  0.1307283E+00
        -11   -1    0    0    0    0  0.00000000000E+00  0.00000000000E+00  0.45600000000E+02  0.45600000000E+02  0.00000000000E+00 0.  1.
         11   -1    0    0    0    0 -0.00000000000E+00 -0.00000000000E+00 -0.45600000000E+02  0.45600000000E+02  0.00000000000E+00 0. -1.
        -11    1    1    2    0    0 -0.29818103269E+00 -0.23892498801E+01  0.41746981491E+02  0.41816359126E+02  0.00000000000E+00 0.  1.
         11    1    1    2    0    0  0.23440549960E+00  0.77784224838E+00 -0.43307989063E+02  0.43315608055E+02  0.00000000000E+00 0. -1.
        -15    1    1    2    0    0  0.67260889909E+00 -0.10026905387E+01  0.18512840374E+01  0.28359782500E+01  0.17770000000E+01 0. -1.
         15    1    1    2    0    0 -0.60883336600E+00  0.26140981705E+01 -0.29027646572E+00  0.32320545693E+01  0.17770000000E+01 0.  1.
</event>
<event>
 6    1  0.3691007E-002  0.5103916E+02  0.7546771E-02  0.1293432E+00
        -11   -1    0    0    0    0  0.00000000000E+00  0.00000000000E+00  0.45600000000E+02  0.45600000000E+02  0.00000000000E+00 0.  1.
         11   -1    0    0    0    0 -0.00000000000E+00 -0.00000000000E+00 -0.45600000000E+02  0.45600000000E+02  0.00000000000E+00 0. -1.
        -11    1    1    2    0    0  0.79474175343E+00  0.12399099401E+01  0.40133831639E+02  0.40160844527E+02  0.00000000000E+00 0.  1.
         11    1    1    2    0    0  0.53141867967E+00  0.27105414019E+00 -0.33194005206E+02  0.33199365322E+02  0.00000000000E+00 0. -1.
        -15    1    1    2    0    0 -0.74153366985E+01 -0.81066363316E-01 -0.82201520235E+01  0.11212600876E+02  0.17770000000E+01 0. -1.
         15    1    1    2    0    0  0.60891762654E+01 -0.14298977169E+01  0.12803255903E+01  0.66271892752E+01  0.17770000000E+01 0.  1.
</event>
<event>
 6    1  0.3691007E-002  0.4668536E+02  0.7546771E-02  0.1312873E+00
        -11   -1    0    0    0    0  0.00000000000E+00  0.00000000000E+00  0.45600000000E+02  0.45600000000E+02  0.00000000000E+00 0. -1.
         11   -1    0    0    0    0 -0.00000000000E+00 -0.00000000000E+00 -0.45600000000E+02  0.45600000000E+02  0.00000000000E+00 0.  1.
        -11    1    1    2    0    0 -0.41316252918E+00  0.38056779689E+00  0.39978270596E+02  0.39982216734E+02  0.00000000000E+00 0. -1.
         11    1    1    2    0    0 -0.12616789355E+01 -0.11717274444E+01 -0.44481331256E+02  0.44514644885E+02  0.00000000000E+00 0.  1.
        -15    1    1    2    0    0 -0.33834233419E+00  0.90056422437E+00  0.90989341747E+00  0.22161061546E+01  0.17770000000E+01 0.  1.
         15    1    1    2    0    0  0.20131837989E+01 -0.10940457683E+00  0.35931672422E+01  0.44870322263E+01  0.17770000000E+01 0. -1.
</event>
<event>
 6    1  0.3691007E-002  0.2238142E+02  0.7546771E-02  0.1499402E+00
        -11   -1    0    0    0    0  0.00000000000E+00  0.00000000000E+00  0.45600000000E+02  0.45600000000E+02  0.00000000000E+00 0. -1.
         11   -1    0    0    0    0 -0.00000000000E+00 -0.00000000000E+00 -0.45600000000E+02  0.45600000000E+02  0.00000000000E+00 0. -1.
        -11    1    1    2    0    0  0.14120040179E+01  0.21003910743E+01  0.20263914322E+02  0.20421352101E+02  0.00000000000E+00 0. -1.
         11    1    1    2    0    0  0.12879819371E+02  0.10053255563E+02 -0.31455542959E+02  0.35445858394E+02  0.00000000000E+00 0. -1.
        -15    1    1    2    0    0 -0.14072278234E+02 -0.13775132849E+02 -0.38116621872E+01  0.20136280623E+02  0.17770000000E+01 0.  1.
         15    1    1    2    0    0 -0.21954515533E+00  0.16214862119E+01  0.15003290825E+02  0.15196508881E+02  0.17770000000E+01 0. -1.
</event>
<event>
 6    1  0.3691007E-002  0.4574795E+02  0.7546771E-02  0.1317380E+00
        -11   -1    0    0    0    0  0.00000000000E+00  0.00000000000E+00  0.45600000000E+02  0.45600000000E+02  0.00000000000E+00 0.  1.
         11   -1    0    0    0    0 -0.00000000000E+00 -0.00000000000E+00 -0.45600000000E+02  0.45600000000E+02  0.00000000000E+00 0. -1.
        -11    1    1    2    0    0  0.54440110088E+00  0.29910971357E+00  0.16775487163E+02  0.16786983313E+02  0.00000000000E+00 0.  1.
         11    1    1    2    0    0 -0.12692017427E-01  0.10601371076E+01 -0.45439685727E+02  0.45452052657E+02  0.00000000000E+00 0. -1.
        -15    1    1    2    0    0 -0.54519967396E+00 -0.71959101308E+00  0.96817402173E+01  0.98847800454E+01  0.17770000000E+01 0. -1.
         15    1    1    2    0    0  0.13490590511E-01 -0.63965580806E+00  0.18982458347E+02  0.19076183985E+02  0.17770000000E+01 0.  1.
</event>
<event>
 6    1  0.3691007E-002  0.4782912E+02  0.7546771E-02  0.1307537E+00
        -11   -1    0    0    0    0  0.00000000000E+00  0.00000000000E+00  0.45600000000E+02  0.45600000000E+02  0.00000000000E+00 0. -1.
         11   -1    0    0    0    0 -0.00000000000E+00 -0.00000000000E+00 -0.45600000000E+02  0.45600000000E+02  0.00000000000E+00 0.  1.
        -11    1    1    2    0    0 -0.36659928860E+00  0.48040202810E+01  0.33340545186E+02  0.33686866272E+02  0.00000000000E+00 0. -1.
         11    1    1    2    0    0 -0.68007722066E+00  0.44487554627E+00 -0.43363266856E+02  0.43370881150E+02  0.00000000000E+00 0.  1.
        -15    1    1    2    0    0 -0.10095486300E+00  0.16804884326E+01  0.12005872913E+01  0.27264211158E+01  0.17770000000E+01 0.  1.
         15    1    1    2    0    0  0.11476313723E+01 -0.69293842599E+01  0.88221343789E+01  0.11415831463E+02  0.17770000000E+01 0. -1.
</event>
<event>
 6    1  0.3691007E-002  0.4652232E+02  0.7546771E-02  0.1313648E+00
        -11   -1    0    0    0    0  0.00000000000E+00  0.00000000000E+00  0.45600000000E+02  0.45600000000E+02  0.00000000000E+00 0. -1.
         11   -1    0    0    0    0 -0.00000000000E+00 -0.00000000000E+00 -0.45600000000E+02  0.45600000000E+02  0.00000000000E+00 0. -1.
        -11    1    1    2    0    0  0.25514998226E+01  0.27907128556E+01  0.23888022558E+02  0.24185447098E+02  0.00000000000E+00 0. -1.
         11    1    1    2    0    0 -0.34091499992E+01  0.53191292426E+00 -0.44544241703E+02  0.44677675677E+02  0.00000000000E+00 0. -1.
        -15    1    1    2    0    0 -0.11893201055E+00 -0.53462988679E+01  0.13811051716E+02  0.14916431709E+02  0.17770000000E+01 0. -1.
         15    1    1    2    0    0  0.97658218708E+00  0.20236730880E+01  0.68451674279E+01  0.74204455157E+01  0.17770000000E+01 0.  1.
</event>
<event>
 6    1  0.3691007E-002  0.4862637E+02  0.7546771E-02  0.1303917E+00
        -11   -1    0    0    0    0  0.00000000000E+00  0.00000000000E+00  0.45600000000E+02  0.45600000000E+02  0.00000000000E+00 0.  1.
         11   -1    0    0    0    0 -0.00000000000E+00 -0.00000000000E+00 -0.45600000000E+02  0.45600000000E+02  0.00000000000E+00 0.  1.
        -11    1    1    2    0    0  0.70519185603E+00  0.17608919281E+01  0.20488064026E+02  0.20575684763E+02  0.00000000000E+00 0.  1.
         11    1    1    2    0    0 -0.40895921619E+01  0.10182231740E+01 -0.42364514366E+02  0.42573625873E+02  0.00000000000E+00 0.  1.
        -15    1    1    2    0    0  0.46360404883E+01 -0.70686388239E+00  0.23905832318E+02  0.24426196507E+02  0.17770000000E+01 0.  1.
         15    1    1    2    0    0 -0.12516401825E+01 -0.20722512197E+01 -0.20293819778E+01  0.36244928577E+01  0.17770000000E+01 0. -1.
</event>
<event>
 6    1  0.3691007E-002  0.4857494E+02  0.7546771E-02  0.1304148E+00
        -11   -1    0    0    0    0  0.00000000000E+00  0.00000000000E+00  0.45600000000E+02  0.45600000000E+02  0.00000000000E+00 0.  1.
         11   -1    0    0    0    0 -0.00000000000E+00 -0.00000000000E+00 -0.45600000000E+02  0.45600000000E+02  0.00000000000E+00 0. -1.
        -11    1    1    2    0    0 -0.82845272371E-01 -0.16095121183E+01  0.30781895853E+02  0.30824057243E+02  0.00000000000E+00 0.  1.
         11    1    1    2    0    0 -0.12485867436E+01  0.19835072016E+01 -0.42560571358E+02  0.42625057232E+02  0.00000000000E+00 0. -1.
        -15    1    1    2    0    0 -0.34447341350E+01  0.21985643347E+01 -0.22193343924E+00  0.44617106413E+01  0.17770000000E+01 0.  1.
         15    1    1    2    0    0  0.47761661511E+01 -0.25725594181E+01  0.12000608944E+02  0.13289174884E+02  0.17770000000E+01 0.  1.
</event>
<event>
 6    1  0.3691007E-002  0.4643160E+02  0.7546771E-02  0.1314081E+00
        -11   -1    0    0    0    0  0.00000000000E+00  0.00000000000E+00  0.45600000000E+02  0.45600000000E+02  0.00000000000E+00 0. -1.
         11   -1    0    0    0    0 -0.00000000000E+00 -0.00000000000E+00 -0.45600000000E+02  0.45600000000E+02  0.00000000000E+00 0.  1.
        -11    1    1    2    0    0 -0.11445995603E+01 -0.13462591625E+01  0.23786754371E+02  0.23852299793E+02  0.00000000000E+00 0. -1.
         11    1    1    2    0    0  0.47222132267E+00  0.26298309231E+01 -0.44688596714E+02  0.44768400462E+02  0.00000000000E+00 0.  1.
        -15    1    1    2    0    0 -0.14990988718E+01 -0.77456506133E+00  0.13055204353E+01  0.27765736202E+01  0.17770000000E+01 0.  1.
         15    1    1    2    0    0  0.21714771094E+01 -0.50900669924E+00  0.19596321908E+02  0.19802726125E+02  0.17770000000E+01 0. -1.
</event>
<event>
 6    1  0.3691007E-002  0.4939017E+02  0.7546771E-02  0.1300524E+00
        -11   -1    0    0    0    0  0.00000000000E+00  0.00000000000E+00  0.45600000000E+02  0.45600000000E+02  0.00000000000E+00 0.  1.
         11   -1    0    0    0    0 -0.00000000000E+00 -0.00000000000E+00 -0.45600000000E+02  0.45600000000E+02  0.00000000000E+00 0. -1.
        -11    1    1    2    0    0  0.25007605564E+01  0.38277994072E+00  0.41733218890E+02  0.41809829977E+02  0.00000000000E+00 0.  1.
         11    1    1    2    0    0 -0.66888109705E+00 -0.20244037205E+01 -0.39939918025E+02  0.39996783173E+02  0.00000000000E+00 0. -1.
        -15    1    1    2    0    0  0.12407137823E+01 -0.68001991481E+00 -0.40093254525E+01  0.46080600428E+01  0.17770000000E+01 0.  1.
         15    1    1    2    0    0 -0.30725932416E+01  0.23216436945E+01  0.22160245879E+01  0.47853268067E+01  0.17770000000E+01 0.  1.
</event>
<event>
 6    1  0.3691007E-002  0.4625806E+02  0.7546771E-02  0.1314912E+00
        -11   -1    0    0    0    0  0.00000000000E+00  0.00000000000E+00  0.45600000000E+02  0.45600000000E+02  0.00000000000E+00 0.  1.
         11   -1    0    0    0    0 -0.00000000000E+00 -0.00000000000E+00 -0.45600000000E+02  0.45600000000E+02  0.00000000000E+00 0. -1.
        -11    1    1    2    0    0  0.16231531611E+01  0.27826217035E+00  0.23394446991E+02  0.23452339031E+02  0.00000000000E+00 0.  1.
         11    1    1    2    0    0 -0.12187402455E+01  0.71230263166E+00 -0.44919768583E+02  0.44941943799E+02  0.00000000000E+00 0. -1.
        -15    1    1    2    0    0  0.16920822885E+01 -0.88959494342E+00  0.18631952778E+02  0.18813875597E+02  0.17770000000E+01 0.  1.
         15    1    1    2    0    0 -0.20964952042E+01 -0.10096985859E+00  0.28933688140E+01  0.39918415734E+01  0.17770000000E+01 0.  1.
</event>
<event>
 6    1  0.3691007E-002  0.4681818E+02  0.7546771E-02  0.1312244E+00
        -11   -1    0    0    0    0  0.00000000000E+00  0.00000000000E+00  0.45600000000E+02  0.45600000000E+02  0.00000000000E+00 0. -1.
         11   -1    0    0    0    0 -0.00000000000E+00 -0.00000000000E+00 -0.45600000000E+02  0.45600000000E+02  0.00000000000E+00 0.  1.
        -11    1    1    2    0    0 -0.16232722200E+01  0.22948174412E+00  0.19798747274E+02  0.19866506190E+02  0.00000000000E+00 0. -1.
         11    1    1    2    0    0 -0.15426805440E+01  0.29874742980E+01 -0.44254274501E+02  0.44381816970E+02  0.00000000000E+00 0.  1.
        -15    1    1    2    0    0 -0.14779837649E+01  0.13513638417E+01  0.15987539720E+01  0.31183911725E+01  0.17770000000E+01 0. -1.
         15    1    1    2    0    0  0.46439365290E+01 -0.45683198839E+01  0.22856773255E+02  0.23833285667E+02  0.17770000000E+01 0. -1.
</event>
<event>
 6    1  0.3691007E-002  0.4794567E+02  0.7546771E-02  0.1307003E+00
        -11   -1    0    0    0    0  0.00000000000E+00  0.00000000000E+00  0.45600000000E+02  0.45600000000E+02  0.00000000000E+00 0.  1.
         11   -1    0    0    0    0 -0.00000000000E+00 -0.00000000000E+00 -0.45600000000E+02  0.45600000000E+02  0.00000000000E+00 0. -1.
        -11    1    1    2    0    0 -0.27881469007E+01 -0.12993707028E+00  0.43164183498E+02  0.43254333700E+02  0.00000000000E+00 0.  1.
         11    1    1    2    0    0  0.30698087986E+01 -0.97951082489E+00 -0.39520839587E+02  0.39651985186E+02  0.00000000000E+00 0. -1.
        -15    1    1    2    0    0  0.11450311571E+01  0.14023095836E+01  0.12941179526E+01  0.28478129844E+01  0.17770000000E+01 0.  1.
         15    1    1    2    0    0 -0.14266930550E+01 -0.29286168845E+00 -0.49374618630E+01  0.54458681301E+01  0.17770000000E+01 0.  1.
</event>
<event>
 6    1  0.3691007E-002  0.4744137E+02  0.7546771E-02  0.1309326E+00
        -11   -1    0    0    0    0  0.00000000000E+00  0.00000000000E+00  0.45600000000E+02  0.45600000000E+02  0.00000000000E+00 0. -1.
         11   -1    0    0    0    0 -0.00000000000E+00 -0.00000000000E+00 -0.45600000000E+02  0.45600000000E+02  0.00000000000E+00 0.  1.
        -11    1    1    2    0    0 -0.51228550726E-01  0.63962943367E+00  0.43753922692E+02  0.43758627734E+02  0.00000000000E+00 0. -1.
         11    1    1    2    0    0 -0.82752600337E+00 -0.11167957996E+01 -0.39240741161E+02  0.39265351125E+02  0.00000000000E+00 0.  1.
        -15    1    1    2    0    0 -0.76051906629E+00  0.26126995955E+01 -0.98605741582E+00  0.33962665758E+01  0.17770000000E+01 0. -1.
         15    1    1    2    0    0  0.16392736204E+01 -0.21355332296E+01 -0.35271241155E+01  0.47797545651E+01  0.17770000000E+01 0.  1.
</event>
<event>
 6    1  0.3691007E-002  0.4921463E+02  0.7546771E-02  0.1301298E+00
        -11   -1    0    0    0    0  0.00000000000E+00  0.00000000000E+00  0.45600000000E+02  0.45600000000E+02  0.00000000000E+00 0. -1.
         11   -1    0    0    0    0 -0.00000000000E+00 -0.00000000000E+00 -0.45600000000E+02  0.45600000000E+02  0.00000000000E+00 0. -1.
        -11    1    1    2    0    0 -0.59749490685E-01 -0.17431475179E+01  0.41949126065E+02  0.41985370201E+02  0.00000000000E+00 0. -1.
         11    1    1    2    0    0 -0.14354392658E+01  0.12968613584E+01 -0.37238934324E+02  0.37289148084E+02  0.00000000000E+00 0. -1.
        -15    1    1    2    0    0 -0.62904325863E+00 -0.47177166572E+01 -0.18693521283E+01  0.54133863947E+01  0.17770000000E+01 0.  1.
         15    1    1    2    0    0  0.21242320151E+01  0.51640028167E+01 -0.28408396132E+01  0.65120953197E+01  0.17770000000E+01 0.  1.
</event>
<event>
 6    1  0.3691007E-002  0.4169642E+02  0.7546771E-02  0.1338393E+00
        -11   -1    0    0    0    0  0.00000000000E+00  0.00000000000E+00  0.45600000000E+02  0.45600000000E+02  0.00000000000E+00 0.  1.
         11   -1    0    0    0    0 -0.00000000000E+00 -0.00000000000E+00 -0.45600000000E+02  0.45600000000E+02  0.00000000000E+00 0.  1.
        -11    1    1    2    0    0  0.47024879494E+01  0.21780979575E+01  0.41313047978E+02  0.41636827891E+02  0.00000000000E+00 0.  1.
         11    1    1    2    0    0  0.42329129594E+00 -0.60414786499E+00 -0.41923952127E+02  0.41930441593E+02  0.00000000000E+00 0.  1.
        -15    1    1    2    0    0 -0.11258172688E+01 -0.17877141969E+01  0.15285226450E+01  0.31555501975E+01  0.17770000000E+01 0. -1.
         15    1    1    2    0    0 -0.39999619765E+01  0.21376410442E+00 -0.91761849518E+00  0.44771803190E+01  0.17770000000E+01 0.  1.
</event>
<event>
 6    1  0.3691007E-002  0.2555983E+02  0.7546771E-02  0.1461778E+00
        -11   -1    0    0    0    0  0.00000000000E+00  0.00000000000E+00  0.45600000000E+02  0.45600000000E+02  0.00000000000E+00 0. -1.
         11   -1    0    0    0    0 -0.00000000000E+00 -0.00000000000E+00 -0.45600000000E+02  0.45600000000E+02  0.00000000000E+00 0. -1.
        -11    1    1    2    0    0 -0.78895704551E+00 -0.14329668265E+01  0.37021639077E+02  0.37057760416E+02  0.00000000000E+00 0. -1.
         11    1    1    2    0    0 -0.64723488179E+00  0.19432868896E+00 -0.18681592006E+02  0.18693810647E+02  0.00000000000E+00 0. -1.
        -15    1    1    2    0    0  0.12086889907E+02 -0.79867366509E+01 -0.37126893561E+01  0.15060632829E+02  0.17770000000E+01 0. -1.
         15    1    1    2    0    0 -0.10650697979E+02  0.92253747884E+01 -0.14627357715E+02  0.20387796108E+02  0.17770000000E+01 0.  1.
</event>
<event>
 6    1  0.3691007E-002  0.4700290E+02  0.7546771E-02  0.1311374E+00
        -11   -1    0    0    0    0  0.00000000000E+00  0.00000000000E+00  0.45600000000E+02  0.45600000000E+02  0.00000000000E+00 0.  1.
         11   -1    0    0    0    0 -0.00000000000E+00 -0.00000000000E+00 -0.45600000000E+02  0.45600000000E+02  0.00000000000E+00 0.  1.
        -11    1    1    2    0    0  0.79239448821E+00 -0.15370014138E+00  0.44189728019E+02  0.44197099171E+02  0.00000000000E+00 0.  1.
         11    1    1    2    0    0  0.39380763227E+00 -0.30858707266E+00 -0.32629405734E+02  0.32633241166E+02  0.00000000000E+00 0.  1.
        -15    1    1    2    0    0 -0.91439230834E+00 -0.23754778615E+00 -0.12178714161E+02  0.12343879044E+02  0.17770000000E+01 0. -1.
         15    1    1    2    0    0 -0.27180981214E+00  0.69983500019E+00  0.61839187670E+00  0.20257806186E+01  0.17770000000E+01 0. -1.
</event>
<event>
 6    1  0.3691007E-002  0.4786611E+02  0.7546771E-02  0.1307367E+00
        -11   -1    0    0    0    0  0.00000000000E+00  0.00000000000E+00  0.45600000000E+02  0.45600000000E+02  0.00000000000E+00 0. -1.
         11   -1    0    0    0    0 -0.00000000000E+00 -0.00000000000E+00 -0.45600000000E+02  0.45600000000E+02  0.00000000000E+00 0. -1.
        -11    1    1    2    0    0 -0.27541871308E+01 -0.13518501882E+01  0.36026733959E+02  0.36157137683E+02  0.00000000000E+00 0. -1.
         11    1    1    2    0    0 -0.81444409265E+00  0.86103654591E+00 -0.43317681422E+02  0.43333892358E+02  0.00000000000E+00 0. -1.
        -15    1    1    2    0    0  0.30580633906E+01  0.34934416910E+01  0.20172058579E+01  0.53649543356E+01  0.17770000000E+01 0.  1.
         15    1    1    2    0    0  0.51056783281E+00 -0.30026280487E+01  0.52737416056E+01  0.63440156237E+01  0.17770000000E+01 0.  1.
</event>
<event>
 6    1  0.3691007E-002  0.4675994E+02  0.7546771E-02  0.1312520E+00
        -11   -1    0    0    0    0  0.00000000000E+00  0.00000000000E+00  0.45600000000E+02  0.45600000000E+02  0.00000000000E+00 0.  1.
         11   -1    0    0    0    0 -0.00000000000E+00 -0.00000000000E+00 -0.45600000000E+02  0.45600000000E+02  0.00000000000E+00 0. -1.
        -11    1    1    2    0    0 -0.10695150897E+01  0.46122369079E-01  0.30964675261E+02  0.30983174528E+02  0.00000000000E+00 0.  1.
         11    1    1    2    0    0  0.15877889792E+00 -0.18402653580E+01 -0.44401655655E+02  0.44440058643E+02  0.00000000000E+00 0. -1.
        -15    1    1    2    0    0  0.15545725364E+01  0.21478850017E+01  0.13480695612E+02  0.13853410733E+02  0.17770000000E+01 0. -1.
         15    1    1    2    0    0 -0.64383634462E+00 -0.35374201268E+00 -0.43715218388E-01  0.19233560956E+01  0.17770000000E+01 0. -1.
</event>
<event>
 6    1  0.3691007E-002  0.4753186E+02  0.7546771E-02  0.1308907E+00
        -11   -1    0    0    0    0  0.00000000000E+00  0.00000000000E+00  0.45600000000E+02  0.45600000000E+02  0.00000000000E+00 0.  1.
         11   -1    0    0    0    0 -0.00000000000E+00 -0.00000000000E+00 -0.45600000000E+02  0.45600000000E+02  0.00000000000E+00 0.  1.
        -11    1    1    2    0    0  0.39343407265E+00  0.92111944414E+00  0.43656649060E+02  0.43668137796E+02  0.00000000000E+00 0.  1.
         11    1    1    2    0    0  0.57330746973E+00  0.19798222627E+01 -0.34507634310E+02  0.34569136572E+02  0.00000000000E+00 0.  1.
        -15    1    1    2    0    0  0.28537133981E+01  0.92884926213E+00 -0.33672354745E+01  0.48479320180E+01  0.17770000000E+01 0.  1.
         15    1    1    2    0    0 -0.38204549405E+01 -0.38297909689E+01 -0.57817792749E+01  0.81147936143E+01  0.17770000000E+01 0. -1.
</event>
<event>
 6    1  0.3691007E-002  0.4808394E+02  0.7546771E-02  0.1306371E+00
        -11   -1    0    0    0    0  0.00000000000E+00  0.00000000000E+00  0.45600000000E+02  0.45600000000E+02  0.00000000000E+00 0. -1.
         11   -1    0    0    0    0 -0.00000000000E+00 -0.00000000000E+00 -0.45600000000E+02  0.45600000000E+02  0.00000000000E+00 0. -1.
        -11    1    1    2    0    0 -0.44665777378E+00 -0.53926043985E+00  0.43110374458E+02  0.43116060707E+02  0.00000000000E+00 0. -1.
         11    1    1    2    0    0  0.76442268846E+00  0.15953691280E+01 -0.22966059496E+02  0.23034092851E+02  0.00000000000E+00 0. -1.
        -15    1    1    2    0    0 -0.54699146652E+01  0.26037173699E+01 -0.36390624093E+01  0.72869619736E+01  0.17770000000E+01 0.  1.
         15    1    1    2    0    0  0.51521497505E+01 -0.36598260580E+01 -0.16505252552E+02  0.17762884469E+02  0.17770000000E+01 0. -1.
</event>
<event>
 6    1  0.3691007E-002  0.4723715E+02  0.7546771E-02  0.1310277E+00
        -11   -1    0    0    0    0  0.00000000000E+00  0.00000000000E+00  0.45600000000E+02  0.45600000000E+02  0.00000000000E+00 0.  1.
         11   -1    0    0    0    0 -0.00000000000E+00 -0.00000000000E+00 -0.45600000000E+02  0.45600000000E+02  0.00000000000E+00 0.  1.
        -11    1    1    2    0    0  0.61207106458E+00  0.13543266727E+00  0.43958384173E+02  0.43962853776E+02  0.00000000000E+00 0.  1.
         11    1    1    2    0    0  0.97751581211E+00  0.95329503243E+00 -0.40661323645E+02  0.40684242025E+02  0.00000000000E+00 0.  1.
        -15    1    1    2    0    0 -0.23435310732E+00 -0.98110154164E+00 -0.37495838435E+01  0.42701978424E+01  0.17770000000E+01 0.  1.
         15    1    1    2    0    0 -0.13552337694E+01 -0.10762615806E+00  0.45252331560E+00  0.22827063567E+01  0.17770000000E+01 0.  1.
</event>
<event>
 6    1  0.3691007E-002  0.4830982E+02  0.7546771E-02  0.1305345E+00
        -11   -1    0    0    0    0  0.00000000000E+00  0.00000000000E+00  0.45600000000E+02  0.45600000000E+02  0.00000000000E+00 0. -1.
         11   -1    0    0    0    0 -0.00000000000E+00 -0.00000000000E+00 -0.45600000000E+02  0.45600000000E+02  0.00000000000E+00 0. -1.
        -11    1    1    2    0    0  0.67161851700E+00  0.91592139502E+00  0.42875136941E+02  0.42890177793E+02  0.00000000000E+00 0. -1.
         11    1    1    2    0    0  0.38841839365E+00  0.45659007803E+00 -0.40345892846E+02  0.40350345883E+02  0.00000000000E+00 0. -1.
        -15    1    1    2    0    0 -0.49512826212E+00 -0.39526334168E+01 -0.15443664048E+01  0.46272302208E+01  0.17770000000E+01 0.  1.
         15    1    1    2    0    0 -0.56490864852E+00  0.25801219438E+01 -0.98487768974E+00  0.33322461028E+01  0.17770000000E+01 0.  1.
</event>
<event>
 6    1  0.3691007E-002  0.4677086E+02  0.7546771E-02  0.1312468E+00
        -11   -1    0    0    0    0  0.00000000000E+00  0.00000000000E+00  0.45600000000E+02  0.45600000000E+02  0.00000000000E+00 0.  1.
         11   -1    0    0    0    0 -0.00000000000E+00 -0.00000000000E+00 -0.45600000000E+02  0.45600000000E+02  0.00000000000E+00 0. -1.
        -11    1    1    2    0    0  0.74088371087E-01 -0.11929098508E+01  0.44413065442E+02  0.44429144770E+02  0.00000000000E+00 0.  1.
         11    1    1    2    0    0 -0.36618398336E+01  0.21752875191E+01 -0.25999783698E+02  0.26346341285E+02  0.00000000000E+00 0. -1.
        -15    1    1    2    0    0 -0.11141665253E+01  0.15151831001E+00 -0.12071262820E+02  0.12253058390E+02  0.17770000000E+01 0. -1.
         15    1    1    2    0    0  0.47019179878E+01 -0.11338959783E+01 -0.63420189242E+01  0.81714555551E+01  0.17770000000E+01 0.  1.
</event>
<event>
 6    1  0.3691007E-002  0.4688171E+02  0.7546771E-02  0.1311945E+00
        -11   -1    0    0    0    0  0.00000000000E+00  0.00000000000E+00  0.45600000000E+02  0.45600000000E+02  0.00000000000E+00 0. -1.
         11   -1    0    0    0    0 -0.00000000000E+00 -0.00000000000E+00 -0.45600000000E+02  0.45600000000E+02  0.00000000000E+00 0. -1.
        -11    1    1    2    0    0 -0.17496394934E+00 -0.72540591624E+00  0.19406000339E+02  0.19420341791E+02  0.00000000000E+00 0. -1.
         11    1    1    2    0    0 -0.15582152429E+01 -0.10748778386E+01 -0.44277846363E+02  0.44318292788E+02  0.00000000000E+00 0. -1.
        -15    1    1    2    0    0 -0.19074725378E+01  0.42418892296E+01  0.20231620757E+02  0.20835265374E+02  0.17770000000E+01 0.  1.
         15    1    1    2    0    0  0.36406517301E+01 -0.24416054748E+01  0.46402252662E+01  0.66261000471E+01  0.17770000000E+01 0. -1.
</event>
<event>
 6    1  0.3691007E-002  0.4902406E+02  0.7546771E-02  0.1302142E+00
        -11   -1    0    0    0    0  0.00000000000E+00  0.00000000000E+00  0.45600000000E+02  0.45600000000E+02  0.00000000000E+00 0.  1.
         11   -1    0    0    0    0 -0.00000000000E+00 -0.00000000000E+00 -0.45600000000E+02  0.45600000000E+02  0.00000000000E+00 0. -1.
        -11    1    1    2    0    0 -0.36001984028E-01  0.84927339946E+00  0.42167373532E+02  0.42175940441E+02  0.00000000000E+00 0.  1.
         11    1    1    2    0    0 -0.38455157336E+00 -0.18896502119E+01 -0.28383757135E+02  0.28449188511E+02  0.00000000000E+00 0. -1.
        -15    1    1    2    0    0  0.16186665780E-01  0.46328885816E+01  0.11616884932E+01  0.50961914969E+01  0.17770000000E+01 0.  1.
         15    1    1    2    0    0  0.40436689161E+00 -0.35925117692E+01 -0.14945304891E+02  0.15478679552E+02  0.17770000000E+01 0.  1.
</event>
<event>
 6    1  0.3691007E-002  0.4588337E+02  0.7546771E-02  0.1316721E+00
        -11   -1    0    0    0    0  0.00000000000E+00  0.00000000000E+00  0.45600000000E+02  0.45600000000E+02  0.00000000000E+00 0. -1.
         11   -1    0    0    0    0 -0.00000000000E+00 -0.00000000000E+00 -0.45600000000E+02  0.45600000000E+02  0.00000000000E+00 0.  1.
        -11    1    1    2    0    0  0.53234333490E+00  0.15030629622E+00  0.15223670658E+02  0.15233716871E+02  0.00000000000E+00 0. -1.
         11    1    1    2    0    0 -0.27435812170E+00 -0.14432497279E+01 -0.45292814090E+02  0.45316633264E+02  0.00000000000E+00 0.  1.
        -15    1    1    2    0    0 -0.15043264822E+00  0.29867610422E+01  0.17341971281E+02  0.17687426846E+02  0.17770000000E+01 0. -1.
         15    1    1    2    0    0 -0.10755256498E+00 -0.16938176105E+01  0.12727172150E+02  0.12962223019E+02  0.17770000000E+01 0. -1.
</event>
<event>
 6    1  0.3691007E-002  0.4628905E+02  0.7546771E-02  0.1314763E+00
        -11   -1    0    0    0    0  0.00000000000E+00  0.00000000000E+00  0.45600000000E+02  0.45600000000E+02  0.00000000000E+00 0.  1.
         11   -1    0    0    0    0 -0.00000000000E+00 -0.00000000000E+00 -0.45600000000E+02  0.45600000000E+02  0.00000000000E+00 0.  1.
        -11    1    1    2    0    0 -0.24894995631E+01 -0.12303505409E+01  0.34653956493E+02  0.34765040934E+02  0.00000000000E+00 0.  1.
         11    1    1    2    0    0  0.60328122415E+00  0.31844013507E+00 -0.44905765790E+02  0.44910946923E+02  0.00000000000E+00 0.  1.
        -15    1    1    2    0    0  0.96693115391E+00 -0.34694892440E+00  0.17424381310E+01  0.26924243820E+01  0.17770000000E+01 0. -1.
         15    1    1    2    0    0  0.91928718502E+00  0.12588593302E+01  0.85093711658E+01  0.88315877609E+01  0.17770000000E+01 0.  1.
</event>
<event>
 6    1  0.3691007E-002  0.3900886E+02  0.7546771E-02  0.1353921E+00
        -11   -1    0    0    0    0  0.00000000000E+00  0.00000000000E+00  0.45600000000E+02  0.45600000000E+02  0.00000000000E+00 0. -1.
         11   -1    0    0    0    0 -0.00000000000E+00 -0.00000000000E+00 -0.45600000000E+02  0.45600000000E+02  0.00000000000E+00 0.  1.
        -11    1    1    2    0    0  0.84165954995E+00 -0.20601167764E+00  0.38103410547E+02  0.38113261825E+02  0.00000000000E+00 0. -1.
         11    1    1    2    0    0 -0.50984105586E+01 -0.46241897883E+01 -0.39589883970E+02  0.40183775759E+02  0.00000000000E+00 0.  1.
        -15    1    1    2    0    0  0.45187628983E+01 -0.17023089494E+01 -0.16961172922E+01  0.54177132408E+01  0.17770000000E+01 0. -1.
         15    1    1    2    0    0 -0.26201188974E+00  0.65325104153E+01  0.31825907152E+01  0.74852491754E+01  0.17770000000E+01 0.  1.
</event>
<event>
 6    1  0.3691007E-002  0.4821971E+02  0.7546771E-02  0.1305753E+00
        -11   -1    0    0    0    0  0.00000000000E+00  0.00000000000E+00  0.45600000000E+02  0.45600000000E+02  0.00000000000E+00 0. -1.
         11   -1    0    0    0    0 -0.00000000000E+00 -0.00000000000E+00 -0.45600000000E+02  0.45600000000E+02  0.00000000000E+00 0.  1.
        -11    1    1    2    0    0  0.11674151538E+01 -0.19419474754E+01  0.32167398312E+02  0.32247101145E+02  0.00000000000E+00 0. -1.
         11    1    1    2    0    0 -0.86579891258E+00  0.54108943263E+00 -0.42968159276E+02  0.42980287308E+02  0.00000000000E+00 0.  1.
        -15    1    1    2    0    0  0.30187749975E+01 -0.32404665366E+01  0.16624834846E+01  0.50532371997E+01  0.17770000000E+01 0.  1.
         15    1    1    2    0    0 -0.33203912388E+01  0.46413245793E+01  0.91382774797E+01  0.10919374347E+02  0.17770000000E+01 0.  1.
</event>
<event>
 6    1  0.3691007E-002  0.4761649E+02  0.7546771E-02  0.1308516E+00
        -11   -1    0    0    0    0  0.00000000000E+00  0.00000000000E+00  0.45600000000E+02  0.45600000000E+02  0.00000000000E+00 0. -1.
         11   -1    0    0    0    0 -0.00000000000E+00 -0.00000000000E+00 -0.45600000000E+02  0.45600000000E+02  0.00000000000E+00 0.  1.
        -11    1    1    2    0    0 -0.38758098747E+01  0.56560239956E+00  0.43407152391E+02  0.43583513935E+02  0.00000000000E+00 0. -1.
         11    1    1    2    0    0  0.68117077870E+00 -0.97691379651E+00 -0.39902100269E+02  0.39919869239E+02  0.00000000000E+00 0.  1.
        -15    1    1    2    0    0 -0.87490307969E+00  0.86533413246E+00 -0.21083493744E+01  0.30194576739E+01  0.17770000000E+01 0. -1.
         15    1    1    2    0    0  0.40695421757E+01 -0.45402273550E+00 -0.13967027473E+01  0.46771591515E+01  0.17770000000E+01 0. -1.
</event>
<event>
 6    1  0.3691007E-002  0.4664810E+02  0.7546771E-02  0.1313050E+00
        -11   -1    0    0    0    0  0.00000000000E+00  0.00000000000E+00  0.45600000000E+02  0.45600000000E+02  0.00000000000E+00 0. -1.
         11   -1    0    0    0    0 -0.00000000000E+00 -0.00000000000E+00 -0.45600000000E+02  0.45600000000E+02  0.00000000000E+00 0.  1.
        -11    1    1    2    0    0 -0.47155707274E+00  0.63403371540E+00  0.44544891427E+02  0.44551899141E+02  0.00000000000E+00 0. -1.
         11    1    1    2    0    0 -0.32165989075E+01  0.39776853663E+00 -0.18938812021E+02  0.19214143986E+02  0.00000000000E+00 0.  1.
        -15    1    1    2    0    0 -0.18962297769E+01 -0.25500749516E+01 -0.12039039634E+02  0.12577550395E+02  0.17770000000E+01 0.  1.
         15    1    1    2    0    0  0.55843857571E+01  0.15182726995E+01 -0.13567039772E+02  0.14856406478E+02  0.17770000000E+01 0. -1.
</event>
<event>
 6    1  0.3691007E-002  0.4663905E+02  0.7546771E-02  0.1313093E+00
        -11   -1    0    0    0    0  0.00000000000E+00  0.00000000000E+00  0.45600000000E+02  0.45600000000E+02  0.00000000000E+00 0. -1.
         11   -1    0    0    0    0 -0.00000000000E+00 -0.00000000000E+00 -0.45600000000E+02  0.45600000000E+02  0.00000000000E+00 0.  1.
        -11    1    1    2    0    0  0.11572418284E+01 -0.12529956205E+01  0.44528295770E+02  0.44560950740E+02  0.00000000000E+00 0. -1.
         11    1    1    2    0    0  0.73425987774E-01 -0.86920946938E+00 -0.27290799974E+02  0.27304737312E+02  0.00000000000E+00 0.  1.
        -15    1    1    2    0    0 -0.42535168705E+01  0.24739479543E+01 -0.10456354778E+02  0.11692130195E+02  0.17770000000E+01 0. -1.
         15    1    1    2    0    0  0.30228490544E+01 -0.35174286439E+00 -0.67811410182E+01  0.76421817537E+01  0.17770000000E+01 0.  1.
</event>
<event>
 6    1  0.3691007E-002  0.4659232E+02  0.7546771E-02  0.1313315E+00
        -11   -1    0    0    0    0  0.00000000000E+00  0.00000000000E+00  0.45600000000E+02  0.45600000000E+02  0.00000000000E+00 0.  1.
         11   -1    0    0    0    0 -0.00000000000E+00 -0.00000000000E+00 -0.45600000000E+02  0.45600000000E+02  0.00000000000E+00 0.  1.
        -11    1    1    2    0    0  0.22008768089E+01  0.10775626828E+01  0.32933312316E+02  0.33024355560E+02  0.00000000000E+00 0.  1.
         11    1    1    2    0    0 -0.99636428183E+00  0.12803955570E+01 -0.44578169777E+02  0.44607682917E+02  0.00000000000E+00 0.  1.
        -15    1    1    2    0    0 -0.57378775215E+00  0.16822470500E+00  0.43690178457E+00  0.19251348278E+01  0.17770000000E+01 0.  1.
         15    1    1    2    0    0 -0.63072477492E+00 -0.25261829448E+01  0.11207955676E+02  0.11642826695E+02  0.17770000000E+01 0.  1.
</event>
<event>
 6    1  0.3691007E-002  0.4784753E+02  0.7546771E-02  0.1307452E+00
        -11   -1    0    0    0    0  0.00000000000E+00  0.00000000000E+00  0.45600000000E+02  0.45600000000E+02  0.00000000000E+00 0. -1.
         11   -1    0    0    0    0 -0.00000000000E+00 -0.00000000000E+00 -0.45600000000E+02  0.45600000000E+02  0.00000000000E+00 0.  1.
        -11    1    1    2    0    0 -0.91160020977E+00  0.16212396090E+00  0.38604357625E+02  0.38615459686E+02  0.00000000000E+00 0. -1.
         11    1    1    2    0    0 -0.32064736334E+00 -0.12657251708E+01 -0.43332806713E+02  0.43352474122E+02  0.00000000000E+00 0.  1.
        -15    1    1    2    0    0  0.33497248578E+01  0.12510966420E+01  0.50581414228E+01  0.64442550449E+01  0.17770000000E+01 0. -1.
         15    1    1    2    0    0 -0.21174772847E+01 -0.14749543207E+00 -0.32969233523E+00  0.27878111467E+01  0.17770000000E+01 0.  1.
</event>
<event>
 6    1  0.3691007E-002  0.4276068E+02  0.7546771E-02  0.1332614E+00
        -11   -1    0    0    0    0  0.00000000000E+00  0.00000000000E+00  0.45600000000E+02  0.45600000000E+02  0.00000000000E+00 0. -1.
         11   -1    0    0    0    0 -0.00000000000E+00 -0.00000000000E+00 -0.45600000000E+02  0.45600000000E+02  0.00000000000E+00 0.  1.
        -11    1    1    2    0    0  0.10098048911E+01 -0.35268576838E+01  0.42554054613E+02  0.42711895240E+02  0.00000000000E+00 0. -1.
         11    1    1    2    0    0 -0.10192966754E+01  0.82256379308E+00 -0.42832647346E+02  0.42852669177E+02  0.00000000000E+00 0.  1.
        -15    1    1    2    0    0 -0.12671554731E+01  0.87599796432E+00  0.11982632523E+01  0.26394354033E+01  0.17770000000E+01 0. -1.
         15    1    1    2    0    0  0.12766472574E+01  0.18282959264E+01 -0.91967051898E+00  0.29960001799E+01  0.17770000000E+01 0.  1.
</event>
<event>
 6    1  0.3691007E-002  0.4778057E+02  0.7546771E-02  0.1307760E+00
        -11   -1    0    0    0    0  0.00000000000E+00  0.00000000000E+00  0.45600000000E+02  0.45600000000E+02  0.00000000000E+00 0. -1.
         11   -1    0    0    0    0 -0.00000000000E+00 -0.00000000000E+00 -0.45600000000E+02  0.45600000000E+02  0.00000000000E+00 0.  1.
        -11    1    1    2    0    0 -0.22156078966E+01  0.34045628052E+01  0.43229004871E+02  0.43419429158E+02  0.00000000000E+00 0. -1.
         11    1    1    2    0    0  0.48721544500E+00  0.74861903444E+00 -0.34416856666E+02  0.34428445101E+02  0.00000000000E+00 0.  1.
        -15    1    1    2    0    0  0.67740289045E+00 -0.17423794451E+01 -0.97155330849E+01  0.10052068092E+02  0.17770000000E+01 0.  1.
         15    1    1    2    0    0  0.10509895612E+01 -0.24108023945E+01  0.90338487966E+00  0.33000576486E+01  0.17770000000E+01 0. -1.
</event>
<event>
 6    1  0.3691007E-002  0.3753477E+02  0.7546771E-02  0.1363068E+00
        -11   -1    0    0    0    0  0.00000000000E+00  0.00000000000E+00  0.45600000000E+02  0.45600000000E+02  0.00000000000E+00 0. -1.
         11   -1    0    0    0    0 -0.00000000000E+00 -0.00000000000E+00 -0.45600000000E+02  0.45600000000E+02  0.00000000000E+00 0.  1.
        -11    1    1    2    0    0 -0.11688249371E+01 -0.18740735745E+01  0.40003462978E+02  0.40064390096E+02  0.00000000000E+00 0. -1.
         11    1    1    2    0    0  0.66851024893E+01  0.48348634344E+01 -0.34494043162E+02  0.35466963690E+02  0.00000000000E+00 0.  1.
        -15    1    1    2    0    0  0.45269825249E+00  0.45514163803E+01 -0.19956441512E+01  0.52972305362E+01  0.17770000000E+01 0.  1.
         15    1    1    2    0    0 -0.59689758048E+01 -0.75122062402E+01 -0.35137756652E+01  0.10371415679E+02  0.17770000000E+01 0. -1.
</event>
<event>
 6    1  0.3691007E-002  0.4623704E+02  0.7546771E-02  0.1315013E+00
        -11   -1    0    0    0    0  0.00000000000E+00  0.00000000000E+00  0.45600000000E+02  0.45600000000E+02  0.00000000000E+00 0.  1.
         11   -1    0    0    0    0 -0.00000000000E+00 -0.00000000000E+00 -0.45600000000E+02  0.45600000000E+02  0.00000000000E+00 0.  1.
        -11    1    1    2    0    0  0.36456417299E-02 -0.72007488478E+00  0.19289314648E+02  0.19302750599E+02  0.00000000000E+00 0.  1.
         11    1    1    2    0    0  0.79640696189E+00  0.43740165430E+00 -0.44953782574E+02  0.44962964226E+02  0.00000000000E+00 0.  1.
        -15    1    1    2    0    0  0.11351255210E+01 -0.31853217874E+01  0.12275413275E+02  0.12856060241E+02  0.17770000000E+01 0. -1.
         15    1    1    2    0    0 -0.19351781247E+01  0.34679950179E+01  0.13389054651E+02  0.14078224933E+02  0.17770000000E+01 0.  1.
</event>
<event>
 6    1  0.3691007E-002  0.4974269E+02  0.7546771E-02  0.1298981E+00
        -11   -1    0    0    0    0  0.00000000000E+00  0.00000000000E+00  0.45600000000E+02  0.45600000000E+02  0.00000000000E+00 0.  1.
         11   -1    0    0    0    0 -0.00000000000E+00 -0.00000000000E+00 -0.45600000000E+02  0.45600000000E+02  0.00000000000E+00 0. -1.
        -11    1    1    2    0    0  0.63518602350E+00  0.14354294860E+01  0.23138359791E+02  0.23191541839E+02  0.00000000000E+00 0.  1.
         11    1    1    2    0    0  0.47390382598E+00  0.72714221438E+00 -0.41448222293E+02  0.41457308788E+02  0.00000000000E+00 0. -1.
        -15    1    1    2    0    0 -0.26836893377E+01 -0.80756573649E+01  0.18209678014E+02  0.20178417497E+02  0.17770000000E+01 0. -1.
         15    1    1    2    0    0  0.15745994882E+01  0.59130856646E+01  0.10018448889E+00  0.63727318755E+01  0.17770000000E+01 0. -1.
</event>
<event>
 6    1  0.3691007E-002  0.4610820E+02  0.7546771E-02  0.1315633E+00
        -11   -1    0    0    0    0  0.00000000000E+00  0.00000000000E+00  0.45600000000E+02  0.45600000000E+02  0.00000000000E+00 0.  1.
         11   -1    0    0    0    0 -0.00000000000E+00 -0.00000000000E+00 -0.45600000000E+02  0.45600000000E+02  0.00000000000E+00 0.  1.
        -11    1    1    2    0    0  0.44124306096E+00  0.92647579320E+00  0.93325170212E+01  0.93887659885E+01  0.00000000000E+00 0.  1.
         11    1    1    2    0    0 -0.16618380842E+01  0.77537027654E+00 -0.45054499782E+02  0.45091804749E+02  0.00000000000E+00 0.  1.
        -15    1    1    2    0    0  0.25353946765E+01 -0.41317529557E+01  0.23767329689E+02  0.24321663146E+02  0.17770000000E+01 0.  1.
         15    1    1    2    0    0 -0.13147996532E+01  0.24299068859E+01  0.11954653072E+02  0.12397766116E+02  0.17770000000E+01 0.  1.
</event>
<event>
 6    1  0.3691007E-002  0.4601655E+02  0.7546771E-02  0.1316076E+00
        -11   -1    0    0    0    0  0.00000000000E+00  0.00000000000E+00  0.45600000000E+02  0.45600000000E+02  0.00000000000E+00 0.  1.
         11   -1    0    0    0    0 -0.00000000000E+00 -0.00000000000E+00 -0.45600000000E+02  0.45600000000E+02  0.00000000000E+00 0.  1.
        -11    1    1    2    0    0  0.16506363834E+01  0.25868060177E+01  0.22230439592E+02  0.22441225686E+02  0.00000000000E+00 0.  1.
         11    1    1    2    0    0  0.58122963614E+00 -0.31343686232E+00 -0.45178621162E+02  0.45183446976E+02  0.00000000000E+00 0.  1.
        -15    1    1    2    0    0 -0.17412328187E+01 -0.17331230104E-01  0.10475307770E+02  0.10766707666E+02  0.17770000000E+01 0. -1.
         15    1    1    2    0    0 -0.49063320093E+00 -0.22560379253E+01  0.12472873801E+02  0.12808619672E+02  0.17770000000E+01 0.  1.
</event>
<event>
 6    1  0.3691007E-002  0.5343419E+02  0.7546771E-02  0.1283661E+00
        -11   -1    0    0    0    0  0.00000000000E+00  0.00000000000E+00  0.45600000000E+02  0.45600000000E+02  0.00000000000E+00 0.  1.
         11   -1    0    0    0    0 -0.00000000000E+00 -0.00000000000E+00 -0.45600000000E+02  0.45600000000E+02  0.00000000000E+00 0. -1.
        -11    1    1    2    0    0 -0.30030214967E+00  0.57564628816E+00  0.37760230896E+02  0.37765812414E+02  0.00000000000E+00 0.  1.
         11    1    1    2    0    0  0.16531474696E+01 -0.13983573825E+00 -0.36639797565E+02  0.36677339273E+02  0.00000000000E+00 0. -1.
        -15    1    1    2    0    0 -0.10639533435E+01  0.41614746595E+01 -0.74183198314E+01  0.87543741169E+01  0.17770000000E+01 0. -1.
         15    1    1    2    0    0 -0.28889197641E+00 -0.45972852094E+01  0.62978865007E+01  0.80024741953E+01  0.17770000000E+01 0.  1.
</event>
<event>
 6    1  0.3691007E-002  0.4619225E+02  0.7546771E-02  0.1315228E+00
        -11   -1    0    0    0    0  0.00000000000E+00  0.00000000000E+00  0.45600000000E+02  0.45600000000E+02  0.00000000000E+00 0.  1.
         11   -1    0    0    0    0 -0.00000000000E+00 -0.00000000000E+00 -0.45600000000E+02  0.45600000000E+02  0.00000000000E+00 0.  1.
        -11    1    1    2    0    0  0.32215980143E+00  0.41632847347E+00  0.31270888551E+02  0.31275319137E+02  0.00000000000E+00 0.  1.
         11    1    1    2    0    0  0.66955862719E+00 -0.57798769142E+00 -0.44999062327E+02  0.45007754763E+02  0.00000000000E+00 0.  1.
        -15    1    1    2    0    0 -0.67591873722E+00  0.20571228902E+01  0.98322482322E+01  0.10223475682E+02  0.17770000000E+01 0. -1.
         15    1    1    2    0    0 -0.31579969139E+00 -0.18954636723E+01  0.38959255439E+01  0.46934504175E+01  0.17770000000E+01 0. -1.
</event>
<event>
 6    1  0.3691007E-002  0.4640751E+02  0.7546771E-02  0.1314196E+00
        -11   -1    0    0    0    0  0.00000000000E+00  0.00000000000E+00  0.45600000000E+02  0.45600000000E+02  0.00000000000E+00 0. -1.
         11   -1    0    0    0    0 -0.00000000000E+00 -0.00000000000E+00 -0.45600000000E+02  0.45600000000E+02  0.00000000000E+00 0. -1.
        -11    1    1    2    0    0 -0.10764344461E+01 -0.45436999257E+00  0.38752079600E+02  0.38769689663E+02  0.00000000000E+00 0. -1.
         11    1    1    2    0    0  0.14610941053E+01  0.34892735662E+00 -0.44767291596E+02  0.44792487575E+02  0.00000000000E+00 0. -1.
        -15    1    1    2    0    0 -0.10041056205E+01  0.49605443514E+00  0.50866725248E+01  0.55032957829E+01  0.17770000000E+01 0. -1.
         15    1    1    2    0    0  0.61944596136E+00 -0.39061179920E+00  0.92853947075E+00  0.21345269793E+01  0.17770000000E+01 0. -1.
</event>
<event>
 6    1  0.3691007E-002  0.5303452E+02  0.7546771E-02  0.1285251E+00
        -11   -1    0    0    0    0  0.00000000000E+00  0.00000000000E+00  0.45600000000E+02  0.45600000000E+02  0.00000000000E+00 0.  1.
         11   -1    0    0    0    0 -0.00000000000E+00 -0.00000000000E+00 -0.45600000000E+02  0.45600000000E+02  0.00000000000E+00 0. -1.
        -11    1    1    2    0    0  0.39256538729E+00 -0.41628606635E+00  0.38161190548E+02  0.38165480027E+02  0.00000000000E+00 0.  1.
         11    1    1    2    0    0 -0.12820461928E+01  0.39208439069E+00 -0.34735581518E+02  0.34761444102E+02  0.00000000000E+00 0. -1.
        -15    1    1    2    0    0 -0.28853490778E+01 -0.28776662031E+00  0.65916255648E+01  0.74172303129E+01  0.17770000000E+01 0. -1.
         15    1    1    2    0    0  0.37748298833E+01  0.31196829596E+00 -0.10017234594E+02  0.10855845558E+02  0.17770000000E+01 0. -1.
</event>
<event>
 6    1  0.3691007E-002  0.2589058E+02  0.7546771E-02  0.1458238E+00
        -11   -1    0    0    0    0  0.00000000000E+00  0.00000000000E+00  0.45600000000E+02  0.45600000000E+02  0.00000000000E+00 0. -1.
         11   -1    0    0    0    0 -0.00000000000E+00 -0.00000000000E+00 -0.45600000000E+02  0.45600000000E+02  0.00000000000E+00 0.  1.
        -11    1    1    2    0    0 -0.56326764042E+00  0.60071941069E+00  0.14601134311E+02  0.14624337845E+02  0.00000000000E+00 0. -1.
         11    1    1    2    0    0 -0.25763510942E+01 -0.65707789367E+00 -0.36848320506E+02  0.36944120784E+02  0.00000000000E+00 0.  1.
        -15    1    1    2    0    0 -0.12979743425E+02 -0.72575433549E+01  0.93064450321E+01  0.17632734418E+02  0.17770000000E+01 0.  1.
         15    1    1    2    0    0  0.16119362159E+02  0.73139018379E+01  0.12940741163E+02  0.21998806953E+02  0.17770000000E+01 0. -1.
</event>
<event>
 6    1  0.3691007E-002  0.4688946E+02  0.7546771E-02  0.1311908E+00
        -11   -1    0    0    0    0  0.00000000000E+00  0.00000000000E+00  0.45600000000E+02  0.45600000000E+02  0.00000000000E+00 0.  1.
         11   -1    0    0    0    0 -0.00000000000E+00 -0.00000000000E+00 -0.45600000000E+02  0.45600000000E+02  0.00000000000E+00 0. -1.
        -11    1    1    2    0    0 -0.52166401374E+00 -0.12424970713E+01  0.44290046223E+02  0.44310541937E+02  0.00000000000E+00 0.  1.
         11    1    1    2    0    0  0.11283063352E+01  0.37243836205E+01 -0.37392797536E+02  0.37594752508E+02  0.00000000000E+00 0. -1.
        -15    1    1    2    0    0 -0.98541631400E+00 -0.18783786275E+00 -0.58349059759E+01  0.61814387583E+01  0.17770000000E+01 0.  1.
         15    1    1    2    0    0  0.37877399249E+00 -0.22940486865E+01 -0.10623427107E+01  0.31132667969E+01  0.17770000000E+01 0. -1.
</event>
<event>
 6    1  0.3691007E-002  0.3729463E+02  0.7546771E-02  0.1364604E+00
        -11   -1    0    0    0    0  0.00000000000E+00  0.00000000000E+00  0.45600000000E+02  0.45600000000E+02  0.00000000000E+00 0.  1.
         11   -1    0    0    0    0 -0.00000000000E+00 -0.00000000000E+00 -0.45600000000E+02  0.45600000000E+02  0.00000000000E+00 0.  1.
        -11    1    1    2    0    0  0.32395255069E+01 -0.10735237307E+01  0.35850891121E+02  0.36012961179E+02  0.00000000000E+00 0.  1.
         11    1    1    2    0    0  0.55635528479E+01 -0.14473284187E+00 -0.38762787461E+02  0.39160282936E+02  0.00000000000E+00 0.  1.
        -15    1    1    2    0    0 -0.61442800247E+00 -0.41315825717E+01 -0.19735364279E+01  0.49497546756E+01  0.17770000000E+01 0. -1.
         15    1    1    2    0    0 -0.81886503523E+01  0.53498391442E+01  0.48854327681E+01  0.11077001209E+02  0.17770000000E+01 0.  1.
</event>
<event>
 6    1  0.3691007E-002  0.4902899E+02  0.7546771E-02  0.1302120E+00
        -11   -1    0    0    0    0  0.00000000000E+00  0.00000000000E+00  0.45600000000E+02  0.45600000000E+02  0.00000000000E+00 0.  1.
         11   -1    0    0    0    0 -0.00000000000E+00 -0.00000000000E+00 -0.45600000000E+02  0.45600000000E+02  0.00000000000E+00 0. -1.
        -11    1    1    2    0    0  0.21506212220E+00  0.12405845661E+01  0.34831149709E+02  0.34853899234E+02  0.00000000000E+00 0.  1.
         11    1    1    2    0    0  0.19153455115E+00 -0.55916197892E+00 -0.42166869285E+02  0.42171011523E+02  0.00000000000E+00 0. -1.
        -15    1    1    2    0    0 -0.20057651223E+01 -0.58490957474E+01  0.37713725819E+01  0.74576132200E+01  0.17770000000E+01 0. -1.
         15    1    1    2    0    0  0.15991684489E+01  0.51676731603E+01  0.35643469941E+01  0.67174760225E+01  0.17770000000E+01 0. -1.
</event>
<event>
 6    1  0.3691007E-002  0.4628990E+02  0.7546771E-02  0.1314759E+00
        -11   -1    0    0    0    0  0.00000000000E+00  0.00000000000E+00  0.45600000000E+02  0.45600000000E+02  0.00000000000E+00 0.  1.
         11   -1    0    0    0    0 -0.00000000000E+00 -0.00000000000E+00 -0.45600000000E+02  0.45600000000E+02  0.00000000000E+00 0. -1.
        -11    1    1    2    0    0 -0.40521169816E+00 -0.12596274839E+01  0.44890607366E+02  0.44910104515E+02  0.00000000000E+00 0.  1.
         11    1    1    2    0    0 -0.18555939850E-01  0.10535185111E+01 -0.10853320574E+02  0.10904348356E+02  0.00000000000E+00 0. -1.
        -15    1    1    2    0    0 -0.12452905152E+01 -0.96715355375E+00 -0.16665448732E+01  0.29019364704E+01  0.17770000000E+01 0. -1.
         15    1    1    2    0    0  0.16690581532E+01  0.11732625265E+01 -0.32370741918E+02  0.32483610658E+02  0.17770000000E+01 0. -1.
</event>
<event>
 6    1  0.3691007E-002  0.4850314E+02  0.7546771E-02  0.1304472E+00
        -11   -1    0    0    0    0  0.00000000000E+00  0.00000000000E+00  0.45600000000E+02  0.45600000000E+02  0.00000000000E+00 0. -1.
         11   -1    0    0    0    0 -0.00000000000E+00 -0.00000000000E+00 -0.45600000000E+02  0.45600000000E+02  0.00000000000E+00 0.  1.
        -11    1    1    2    0    0  0.55216466656E+00  0.27498840192E+00  0.42692407941E+02  0.42696864056E+02  0.00000000000E+00 0. -1.
         11    1    1    2    0    0  0.16741042153E+01  0.51287058648E+01 -0.36201752583E+02  0.36601545580E+02  0.00000000000E+00 0.  1.
        -15    1    1    2    0    0  0.19170355846E+01 -0.11417089340E+01  0.94922545689E-01  0.28539908921E+01  0.17770000000E+01 0. -1.
         15    1    1    2    0    0 -0.41433044664E+01 -0.42619853327E+01 -0.65855779039E+01  0.90475994720E+01  0.17770000000E+01 0.  1.
</event>
<event>
 6    1  0.3691007E-002  0.4613497E+02  0.7546771E-02  0.1315504E+00
        -11   -1    0    0    0    0  0.00000000000E+00  0.00000000000E+00  0.45600000000E+02  0.45600000000E+02  0.00000000000E+00 0.  1.
         11   -1    0    0    0    0 -0.00000000000E+00 -0.00000000000E+00 -0.45600000000E+02  0.45600000000E+02  0.00000000000E+00 0.  1.
        -11    1    1    2    0    0  0.35624612187E+00 -0.16408567622E+01  0.45033741123E+02  0.45065032584E+02  0.00000000000E+00 0.  1.
         11    1    1    2    0    0  0.52797650270E+00  0.10098675578E+01 -0.16120290280E+02  0.16160518259E+02  0.00000000000E+00 0.  1.
        -15    1    1    2    0    0  0.10375528469E+01 -0.14337555444E+01 -0.32995573551E+01  0.41445118664E+01  0.17770000000E+01 0.  1.
         15    1    1    2    0    0 -0.19217754715E+01  0.20647447488E+01 -0.25613893488E+02  0.25829937291E+02  0.17770000000E+01 0. -1.
</event>
<event>
 6    1  0.3691007E-002  0.4673548E+02  0.7546771E-02  0.1312636E+00
        -11   -1    0    0    0    0  0.00000000000E+00  0.00000000000E+00  0.45600000000E+02  0.45600000000E+02  0.00000000000E+00 0. -1.
         11   -1    0    0    0    0 -0.00000000000E+00 -0.00000000000E+00 -0.45600000000E+02  0.45600000000E+02  0.00000000000E+00 0. -1.
        -11    1    1    2    0    0 -0.37496045116E+00 -0.66516177079E+00  0.44457960110E+02  0.44464516782E+02  0.00000000000E+00 0. -1.
         11    1    1    2    0    0  0.64281981454E+00  0.40353244622E+00 -0.37453568207E+02  0.37461257682E+02  0.00000000000E+00 0. -1.
        -15    1    1    2    0    0 -0.19614600268E+01  0.72172830844E+00 -0.59715338114E+01  0.65715418472E+01  0.17770000000E+01 0.  1.
         15    1    1    2    0    0  0.16936006634E+01 -0.46009898387E+00 -0.10328580918E+01  0.27026836885E+01  0.17770000000E+01 0. -1.
</event>
<event>
 6    1  0.3691007E-002  0.5092298E+02  0.7546771E-02  0.1293922E+00
        -11   -1    0    0    0    0  0.00000000000E+00  0.00000000000E+00  0.45600000000E+02  0.45600000000E+02  0.00000000000E+00 0.  1.
         11   -1    0    0    0    0 -0.00000000000E+00 -0.00000000000E+00 -0.45600000000E+02  0.45600000000E+02  0.00000000000E+00 0.  1.
        -11    1    1    2    0    0  0.90818678562E+00 -0.50156292810E+00  0.38187839966E+02  0.38201930447E+02  0.00000000000E+00 0.  1.
         11    1    1    2    0    0 -0.32200527823E+00 -0.47513762979E+00 -0.40272928387E+02  0.40277018311E+02  0.00000000000E+00 0.  1.
        -15    1    1    2    0    0  0.96676278435E+00  0.20607411867E+01  0.67724063229E+01  0.73623706048E+01  0.17770000000E+01 0. -1.
         15    1    1    2    0    0 -0.15529442917E+01 -0.10840406288E+01 -0.46873179018E+01  0.53586806371E+01  0.17770000000E+01 0.  1.
</event>
<event>
 6    1  0.3691007E-002  0.4820254E+02  0.7546771E-02  0.1305831E+00
        -11   -1    0    0    0    0  0.00000000000E+00  0.00000000000E+00  0.45600000000E+02  0.45600000000E+02  0.00000000000E+00 0. -1.
         11   -1    0    0    0    0 -0.00000000000E+00 -0.00000000000E+00 -0.45600000000E+02  0.45600000000E+02  0.00000000000E+00 0.  1.
        -11    1    1    2    0    0  0.31323518251E+01  0.24944234807E+01  0.42810599042E+02  0.42997455352E+02  0.00000000000E+00 0. -1.
         11    1    1    2    0    0 -0.13987437270E+01  0.20444063209E+01 -0.38940238972E+02  0.39018947864E+02  0.00000000000E+00 0.  1.
        -15    1    1    2    0    0 -0.32081697781E+00 -0.46620567877E+01 -0.37459955100E+00  0.50135567065E+01  0.17770000000E+01 0.  1.
         15    1    1    2    0    0 -0.14127911203E+01  0.12322698621E+00 -0.34957605186E+01  0.41700400769E+01  0.17770000000E+01 0. -1.
</event>
<event>
 6    1  0.3691007E-002  0.2535017E+02  0.7546771E-02  0.1464055E+00
        -11   -1    0    0    0    0  0.00000000000E+00  0.00000000000E+00  0.45600000000E+02  0.45600000000E+02  0.00000000000E+00 0.  1.
         11   -1    0    0    0    0 -0.00000000000E+00 -0.00000000000E+00 -0.45600000000E+02  0.45600000000E+02  0.00000000000E+00 0. -1.
        -11    1    1    2    0    0 -0.32894100833E+01  0.34436134444E+01  0.29265101469E+02  0.29650039734E+02  0.00000000000E+00 0.  1.
         11    1    1    2    0    0 -0.29385702186E+01  0.47762629484E+00 -0.24173890204E+02  0.24356524575E+02  0.00000000000E+00 0. -1.
        -15    1    1    2    0    0 -0.21700854000E+00  0.15169077939E+01  0.15078382441E+02  0.15259863957E+02  0.17770000000E+01 0.  1.
         15    1    1    2    0    0  0.64449888419E+01 -0.54381475331E+01 -0.20169593705E+02  0.21933571734E+02  0.17770000000E+01 0. -1.
</event>
<event>
 6    1  0.3691007E-002  0.3908075E+02  0.7546771E-02  0.1353487E+00
        -11   -1    0    0    0    0  0.00000000000E+00  0.00000000000E+00  0.45600000000E+02  0.45600000000E+02  0.00000000000E+00 0. -1.
         11   -1    0    0    0    0 -0.00000000000E+00 -0.00000000000E+00 -0.45600000000E+02  0.45600000000E+02  0.00000000000E+00 0. -1.
        -11    1    1    2    0    0  0.22351111202E+01  0.32109206031E+01  0.41304861566E+02  0.41489725497E+02  0.00000000000E+00 0. -1.
         11    1    1    2    0    0  0.56400890617E+01  0.23699442599E+01 -0.36885489789E+02  0.37389391509E+02  0.00000000000E+00 0. -1.
        -15    1    1    2    0    0 -0.68999426125E+01 -0.42994510490E+01 -0.13576774686E+01  0.84318150174E+01  0.17770000000E+01 0. -1.
         15    1    1    2    0    0 -0.97525756941E+00 -0.12814138140E+01 -0.30616943081E+01  0.38890679765E+01  0.17770000000E+01 0.  1.
</event>
<event>
 6    1  0.3691007E-002  0.4610384E+02  0.7546771E-02  0.1315654E+00
        -11   -1    0    0    0    0  0.00000000000E+00  0.00000000000E+00  0.45600000000E+02  0.45600000000E+02  0.00000000000E+00 0.  1.
         11   -1    0    0    0    0 -0.00000000000E+00 -0.00000000000E+00 -0.45600000000E+02  0.45600000000E+02  0.00000000000E+00 0. -1.
        -11    1    1    2    0    0  0.53657119068E+00 -0.66679452459E-01  0.27888576771E+02  0.27893817757E+02  0.00000000000E+00 0.  1.
         11    1    1    2    0    0 -0.26025906957E+01  0.19179865720E+00 -0.45020593146E+02  0.45096164718E+02  0.00000000000E+00 0. -1.
        -15    1    1    2    0    0 -0.84119949179E+00  0.11631114224E+01  0.92353315448E+01  0.95136492739E+01  0.17770000000E+01 0.  1.
         15    1    1    2    0    0  0.29072189968E+01 -0.12882306271E+01  0.78966848305E+01  0.86963682509E+01  0.17770000000E+01 0.  1.
</event>
<event>
 6    1  0.3691007E-002  0.4777008E+02  0.7546771E-02  0.1307808E+00
        -11   -1    0    0    0    0  0.00000000000E+00  0.00000000000E+00  0.45600000000E+02  0.45600000000E+02  0.00000000000E+00 0. -1.
         11   -1    0    0    0    0 -0.00000000000E+00 -0.00000000000E+00 -0.45600000000E+02  0.45600000000E+02  0.00000000000E+00 0.  1.
        -11    1    1    2    0    0  0.25938774077E+01  0.26785960807E+01  0.43269556863E+02  0.43429916280E+02  0.00000000000E+00 0. -1.
         11    1    1    2    0    0  0.25250090128E+00 -0.83412184634E+00 -0.39559419822E+02  0.39569018343E+02  0.00000000000E+00 0.  1.
        -15    1    1    2    0    0  0.97530136807E+00  0.42170323520E+00  0.11681019987E+00  0.20737454038E+01  0.17770000000E+01 0.  1.
         15    1    1    2    0    0 -0.38216796771E+01 -0.22661774696E+01 -0.38269472409E+01  0.61273199739E+01  0.17770000000E+01 0. -1.
</event>
<event>
 6    1  0.3691007E-002  0.4664972E+02  0.7546771E-02  0.1313042E+00
        -11   -1    0    0    0    0  0.00000000000E+00  0.00000000000E+00  0.45600000000E+02  0.45600000000E+02  0.00000000000E+00 0. -1.
         11   -1    0    0    0    0 -0.00000000000E+00 -0.00000000000E+00 -0.45600000000E+02  0.45600000000E+02  0.00000000000E+00 0. -1.
        -11    1    1    2    0    0 -0.18074844632E+01 -0.22482563546E+01  0.29098221137E+02  0.29240864045E+02  0.00000000000E+00 0. -1.
         11    1    1    2    0    0 -0.21030916845E+01 -0.19278059071E+01 -0.44458830895E+02  0.44550275811E+02  0.00000000000E+00 0. -1.
        -15    1    1    2    0    0  0.84762667242E+00 -0.28274859218E+00  0.71190823493E+01  0.73917170021E+01  0.17770000000E+01 0. -1.
         15    1    1    2    0    0  0.30629494753E+01  0.44588108538E+01  0.82415274084E+01  0.10017143143E+02  0.17770000000E+01 0.  1.
</event>
<event>
 6    1  0.3691007E-002  0.4584695E+02  0.7546771E-02  0.1316898E+00
        -11   -1    0    0    0    0  0.00000000000E+00  0.00000000000E+00  0.45600000000E+02  0.45600000000E+02  0.00000000000E+00 0.  1.
         11   -1    0    0    0    0 -0.00000000000E+00 -0.00000000000E+00 -0.45600000000E+02  0.45600000000E+02  0.00000000000E+00 0. -1.
        -11    1    1    2    0    0  0.10016027951E+01  0.78796384605E+00  0.45335137832E+02  0.45353046397E+02  0.00000000000E+00 0.  1.
         11    1    1    2    0    0 -0.27050650823E+00  0.13073671161E+01 -0.52548097158E+01  0.54217531940E+01  0.00000000000E+00 0. -1.
        -15    1    1    2    0    0 -0.27824085133E-01 -0.22798654937E+01 -0.31515963524E+02  0.31648258194E+02  0.17770000000E+01 0. -1.
         15    1    1    2    0    0 -0.70327220169E+00  0.18453453161E+00 -0.85643645925E+01  0.87769422156E+01  0.17770000000E+01 0.  1.
</event>
<event>
 6    1  0.3691007E-002  0.4719192E+02  0.7546771E-02  0.1310488E+00
        -11   -1    0    0    0    0  0.00000000000E+00  0.00000000000E+00  0.45600000000E+02  0.45600000000E+02  0.00000000000E+00 0. -1.
         11   -1    0    0    0    0 -0.00000000000E+00 -0.00000000000E+00 -0.45600000000E+02  0.45600000000E+02  0.00000000000E+00 0.  1.
        -11    1    1    2    0    0  0.10900519235E+01  0.13542727616E+01  0.43973730838E+02  0.44008081891E+02  0.00000000000E+00 0. -1.
         11    1    1    2    0    0 -0.92502114808E+00 -0.21941463540E+00 -0.28602167024E+02  0.28617962286E+02  0.00000000000E+00 0.  1.
        -15    1    1    2    0    0 -0.43853736980E+01  0.17021372184E+01 -0.69978083710E+01  0.86171819395E+01  0.17770000000E+01 0. -1.
         15    1    1    2    0    0  0.42203429226E+01 -0.28369953446E+01 -0.83737554422E+01  0.99567738839E+01  0.17770000000E+01 0.  1.
</event>
<event>
 6    1  0.3691007E-002  0.3514884E+02  0.7546771E-02  0.1378959E+00
        -11   -1    0    0    0    0  0.00000000000E+00  0.00000000000E+00  0.45600000000E+02  0.45600000000E+02  0.00000000000E+00 0. -1.
         11   -1    0    0    0    0 -0.00000000000E+00 -0.00000000000E+00 -0.45600000000E+02  0.45600000000E+02  0.00000000000E+00 0.  1.
        -11    1    1    2    0    0  0.14162903493E+01 -0.89066155372E+00  0.37832215487E+02  0.37869191766E+02  0.00000000000E+00 0. -1.
         11    1    1    2    0    0  0.65359579543E+00  0.34639503597E+00 -0.10107295395E+02  0.10134327663E+02  0.00000000000E+00 0.  1.
        -15    1    1    2    0    0 -0.86745794764E+01 -0.54225961885E+01 -0.31648495278E+02  0.33308225123E+02  0.17770000000E+01 0.  1.
         15    1    1    2    0    0  0.66046933317E+01  0.59668627063E+01  0.39235751849E+01  0.98882554474E+01  0.17770000000E+01 0. -1.
</event>
<event>
 6    1  0.3691007E-002  0.4932606E+02  0.7546771E-02  0.1300806E+00
        -11   -1    0    0    0    0  0.00000000000E+00  0.00000000000E+00  0.45600000000E+02  0.45600000000E+02  0.00000000000E+00 0. -1.
         11   -1    0    0    0    0 -0.00000000000E+00 -0.00000000000E+00 -0.45600000000E+02  0.45600000000E+02  0.00000000000E+00 0.  1.
        -11    1    1    2    0    0  0.91024496182E+00 -0.44659445483E+00  0.41861663371E+02  0.41873940018E+02  0.00000000000E+00 0. -1.
         11    1    1    2    0    0  0.37220668747E+00  0.12267165817E+01 -0.40898831718E+02  0.40918917475E+02  0.00000000000E+00 0.  1.
        -15    1    1    2    0    0  0.15453122145E+01 -0.99154246373E+00 -0.34102044600E+01  0.42612638684E+01  0.17770000000E+01 0.  1.
         15    1    1    2    0    0 -0.28277638638E+01  0.21142033691E+00  0.24473728072E+01  0.41458786386E+01  0.17770000000E+01 0.  1.
</event>
<event>
 6    1  0.3691007E-002  0.4692890E+02  0.7546771E-02  0.1311722E+00
        -11   -1    0    0    0    0  0.00000000000E+00  0.00000000000E+00  0.45600000000E+02  0.45600000000E+02  0.00000000000E+00 0. -1.
         11   -1    0    0    0    0 -0.00000000000E+00 -0.00000000000E+00 -0.45600000000E+02  0.45600000000E+02  0.00000000000E+00 0. -1.
        -11    1    1    2    0    0 -0.11984967280E+01 -0.55856470249E+00  0.44251348273E+02  0.44271099071E+02  0.00000000000E+00 0. -1.
         11    1    1    2    0    0  0.35235057245E+00 -0.50020794175E+00 -0.41730245105E+02  0.41734730326E+02  0.00000000000E+00 0. -1.
        -15    1    1    2    0    0  0.16618032145E+01  0.61003649040E+00 -0.16798396155E+01  0.30188283451E+01  0.17770000000E+01 0.  1.
         15    1    1    2    0    0 -0.81565705894E+00  0.44873615384E+00 -0.84126355293E+00  0.21753422579E+01  0.17770000000E+01 0.  1.
</event>
<event>
 6    1  0.3691007E-002  0.4887846E+02  0.7546771E-02  0.1302790E+00
        -11   -1    0    0    0    0  0.00000000000E+00  0.00000000000E+00  0.45600000000E+02  0.45600000000E+02  0.00000000000E+00 0. -1.
         11   -1    0    0    0    0 -0.00000000000E+00 -0.00000000000E+00 -0.45600000000E+02  0.45600000000E+02  0.00000000000E+00 0. -1.
        -11    1    1    2    0    0 -0.11131078280E+01 -0.20337230372E+00  0.40808678412E+02  0.40824362862E+02  0.00000000000E+00 0. -1.
         11    1    1    2    0    0  0.49459824847E+00 -0.44271713138E+00 -0.42316329989E+02  0.42321536003E+02  0.00000000000E+00 0. -1.
        -15    1    1    2    0    0  0.17361465897E+01  0.35090573385E+01  0.13261112631E+01  0.44993320024E+01  0.17770000000E+01 0. -1.
         15    1    1    2    0    0 -0.11176370101E+01 -0.28629679034E+01  0.18154031405E+00  0.35547691329E+01  0.17770000000E+01 0. -1.
</event>
<event>
 6    1  0.3691007E-002  0.4091415E+02  0.7546771E-02  0.1342770E+00
        -11   -1    0    0    0    0  0.00000000000E+00  0.00000000000E+00  0.45600000000E+02  0.45600000000E+02  0.00000000000E+00 0. -1.
         11   -1    0    0    0    0 -0.00000000000E+00 -0.00000000000E+00 -0.45600000000E+02  0.45600000000E+02  0.00000000000E+00 0.  1.
        -11    1    1    2    0    0 -0.13227288088E+00 -0.20923602849E+01  0.41220122042E+02  0.41273404619E+02  0.00000000000E+00 0. -1.
         11    1    1    2    0    0  0.26034224150E+01  0.17338428556E+01 -0.40475681407E+02  0.40596364427E+02  0.00000000000E+00 0.  1.
        -15    1    1    2    0    0 -0.45856479757E+01 -0.69096120559E+00  0.19462578096E+01  0.53339706791E+01  0.17770000000E+01 0.  1.
         15    1    1    2    0    0  0.21144984416E+01  0.10494786349E+01 -0.26906984451E+01  0.39962602752E+01  0.17770000000E+01 0. -1.
</event>
<event>
 6    1  0.3691007E-002  0.4613633E+02  0.7546771E-02  0.1315498E+00
        -11   -1    0    0    0    0  0.00000000000E+00  0.00000000000E+00  0.45600000000E+02  0.45600000000E+02  0.00000000000E+00 0.  1.
         11   -1    0    0    0    0 -0.00000000000E+00 -0.00000000000E+00 -0.45600000000E+02  0.45600000000E+02  0.00000000000E+00 0.  1.
        -11    1    1    2    0    0  0.92316004651E+00 -0.46336326887E+00  0.37216027817E+02  0.37230359338E+02  0.00000000000E+00 0.  1.
         11    1    1    2    0    0 -0.17511848531E+00 -0.85073928208E+00 -0.45055302301E+02  0.45063673721E+02  0.00000000000E+00 0.  1.
        -15    1    1    2    0    0 -0.27382115422E+00  0.84377827569E+00  0.22403619500E+01  0.29939756963E+01  0.17770000000E+01 0. -1.
         15    1    1    2    0    0 -0.47422040699E+00  0.47032427527E+00  0.55989125340E+01  0.59119912450E+01  0.17770000000E+01 0.  1.
</event>
<event>
 6    1  0.3691007E-002  0.5202923E+02  0.7546771E-02  0.1289320E+00
        -11   -1    0    0    0    0  0.00000000000E+00  0.00000000000E+00  0.45600000000E+02  0.45600000000E+02  0.00000000000E+00 0.  1.
         11   -1    0    0    0    0 -0.00000000000E+00 -0.00000000000E+00 -0.45600000000E+02  0.45600000000E+02  0.00000000000E+00 0.  1.
        -11    1    1    2    0    0 -0.11335089829E+01  0.31959108008E+00  0.39153059566E+02  0.39170767857E+02  0.00000000000E+00 0.  1.
         11    1    1    2    0    0  0.12445943495E+01 -0.86841991446E+00 -0.38157283396E+02  0.38187451400E+02  0.00000000000E+00 0.  1.
        -15    1    1    2    0    0  0.19704893482E+01  0.59634526010E+00  0.58596789257E+01  0.64600326665E+01  0.17770000000E+01 0. -1.
         15    1    1    2    0    0 -0.20815747148E+01 -0.47516425724E-01 -0.68554550955E+01  0.73817480768E+01  0.17770000000E+01 0.  1.
</event>
<event>
 6    1  0.3691007E-002  0.4798593E+02  0.7546771E-02  0.1306818E+00
        -11   -1    0    0    0    0  0.00000000000E+00  0.00000000000E+00  0.45600000000E+02  0.45600000000E+02  0.00000000000E+00 0. -1.
         11   -1    0    0    0    0 -0.00000000000E+00 -0.00000000000E+00 -0.45600000000E+02  0.45600000000E+02  0.00000000000E+00 0. -1.
        -11    1    1    2    0    0 -0.51014759183E+00  0.63138077649E+00  0.23663440928E+02  0.23677358991E+02  0.00000000000E+00 0. -1.
         11    1    1    2    0    0  0.18350159700E+01  0.28853868257E+01 -0.43078568662E+02  0.43214069685E+02  0.00000000000E+00 0. -1.
        -15    1    1    2    0    0 -0.46760990125E+01 -0.55356592386E+01  0.43367510229E+01  0.86298646348E+01  0.17770000000E+01 0.  1.
         15    1    1    2    0    0  0.33512306343E+01  0.20188916365E+01  0.15078376711E+02  0.15678706689E+02  0.17770000000E+01 0.  1.
</event>
<event>
 6    1  0.3691007E-002  0.4839227E+02  0.7546771E-02  0.1304972E+00
        -11   -1    0    0    0    0  0.00000000000E+00  0.00000000000E+00  0.45600000000E+02  0.45600000000E+02  0.00000000000E+00 0.  1.
         11   -1    0    0    0    0 -0.00000000000E+00 -0.00000000000E+00 -0.45600000000E+02  0.45600000000E+02  0.00000000000E+00 0. -1.
        -11    1    1    2    0    0 -0.59291242628E+00  0.70502983703E+00  0.41149923681E+02  0.41160233615E+02  0.00000000000E+00 0.  1.
         11    1    1    2    0    0 -0.98205312002E+00 -0.14518616376E+01 -0.42771827139E+02  0.42807727426E+02  0.00000000000E+00 0. -1.
        -15    1    1    2    0    0  0.32727129729E-01  0.60278004747E+00 -0.21062887708E+01  0.28210984096E+01  0.17770000000E+01 0.  1.
         15    1    1    2    0    0  0.15422384166E+01  0.14405175308E+00  0.37281922287E+01  0.44109405499E+01  0.17770000000E+01 0.  1.
</event>
<event>
 6    1  0.3691007E-002  0.3930895E+02  0.7546771E-02  0.1352116E+00
        -11   -1    0    0    0    0  0.00000000000E+00  0.00000000000E+00  0.45600000000E+02  0.45600000000E+02  0.00000000000E+00 0. -1.
         11   -1    0    0    0    0 -0.00000000000E+00 -0.00000000000E+00 -0.45600000000E+02  0.45600000000E+02  0.00000000000E+00 0.  1.
        -11    1    1    2    0    0  0.11484013167E+01  0.11242663303E+00  0.15410644681E+01  0.19251870109E+01  0.00000000000E+00 0. -1.
         11    1    1    2    0    0 -0.33856468534E+01 -0.14070950054E+01 -0.39599763922E+02  0.39769131542E+02  0.00000000000E+00 0.  1.
        -15    1    1    2    0    0  0.28328550069E+01  0.11177791107E+02  0.37673785165E+02  0.39439065648E+02  0.17770000000E+01 0. -1.
         15    1    1    2    0    0 -0.59560947028E+00 -0.98831227346E+01  0.38491428867E+00  0.10066615799E+02  0.17770000000E+01 0.  1.
</event>
<event>
 6    1  0.3691007E-002  0.4597170E+02  0.7546771E-02  0.1316293E+00
        -11   -1    0    0    0    0  0.00000000000E+00  0.00000000000E+00  0.45600000000E+02  0.45600000000E+02  0.00000000000E+00 0.  1.
         11   -1    0    0    0    0 -0.00000000000E+00 -0.00000000000E+00 -0.45600000000E+02  0.45600000000E+02  0.00000000000E+00 0.  1.
        -11    1    1    2    0    0 -0.15729776290E+01  0.80952991974E+00  0.45193684624E+02  0.45228295648E+02  0.00000000000E+00 0.  1.
         11    1    1    2    0    0 -0.29925567047E+00 -0.87347288537E+00 -0.20379577452E+02  0.20400482493E+02  0.00000000000E+00 0.  1.
        -15    1    1    2    0    0  0.50212872723E+00 -0.11570065664E+00 -0.23325703000E+01  0.29772694042E+01  0.17770000000E+01 0.  1.
         15    1    1    2    0    0  0.13701045722E+01  0.17964362227E+00 -0.22481536873E+02  0.22593952455E+02  0.17770000000E+01 0.  1.
</event>
<event>
 6    1  0.3691007E-002  0.4928292E+02  0.7546771E-02  0.1300996E+00
        -11   -1    0    0    0    0  0.00000000000E+00  0.00000000000E+00  0.45600000000E+02  0.45600000000E+02  0.00000000000E+00 0. -1.
         11   -1    0    0    0    0 -0.00000000000E+00 -0.00000000000E+00 -0.45600000000E+02  0.45600000000E+02  0.00000000000E+00 0.  1.
        -11    1    1    2    0    0  0.36893125410E+00 -0.33858989047E+01  0.41778478588E+02  0.41917081181E+02  0.00000000000E+00 0. -1.
         11    1    1    2    0    0 -0.57366995287E+00 -0.29429657211E+00 -0.32968934100E+02  0.32975238033E+02  0.00000000000E+00 0.  1.
        -15    1    1    2    0    0  0.56440750268E+01  0.48795251392E+01 -0.35819566291E+01  0.84648384973E+01  0.17770000000E+01 0.  1.
         15    1    1    2    0    0 -0.54393363280E+01 -0.11993296624E+01 -0.52275878590E+01  0.78428422878E+01  0.17770000000E+01 0. -1.
</event>
<event>
 6    1  0.3691007E-002  0.4652736E+02  0.7546771E-02  0.1313624E+00
        -11   -1    0    0    0    0  0.00000000000E+00  0.00000000000E+00  0.45600000000E+02  0.45600000000E+02  0.00000000000E+00 0. -1.
         11   -1    0    0    0    0 -0.00000000000E+00 -0.00000000000E+00 -0.45600000000E+02  0.45600000000E+02  0.00000000000E+00 0.  1.
        -11    1    1    2    0    0  0.89527173169E+00  0.36275141313E+00  0.44662190618E+02  0.44672635593E+02  0.00000000000E+00 0. -1.
         11    1    1    2    0    0 -0.64567320021E+00 -0.57661008504E+00 -0.29470710375E+02  0.29483421495E+02  0.00000000000E+00 0.  1.
        -15    1    1    2    0    0 -0.14505951413E+01  0.20290884993E+00 -0.71768487031E+00  0.24120942847E+01  0.17770000000E+01 0.  1.
         15    1    1    2    0    0  0.12009966098E+01  0.10949821974E-01 -0.14473795372E+02  0.14631848627E+02  0.17770000000E+01 0. -1.
</event>
<event>
 6    1  0.3691007E-002  0.4703883E+02  0.7546771E-02  0.1311205E+00
        -11   -1    0    0    0    0  0.00000000000E+00  0.00000000000E+00  0.45600000000E+02  0.45600000000E+02  0.00000000000E+00 0. -1.
         11   -1    0    0    0    0 -0.00000000000E+00 -0.00000000000E+00 -0.45600000000E+02  0.45600000000E+02  0.00000000000E+00 0. -1.
        -11    1    1    2    0    0 -0.47483982034E+00 -0.81130266335E+00  0.44151167978E+02  0.44161174335E+02  0.00000000000E+00 0. -1.
         11    1    1    2    0    0  0.31630285016E+00 -0.16782889576E+01 -0.32508186575E+02  0.32553016691E+02  0.00000000000E+00 0. -1.
        -15    1    1    2    0    0  0.11879079500E+01  0.47870532205E+01 -0.90484865378E+01  0.10457525590E+02  0.17770000000E+01 0. -1.
         15    1    1    2    0    0 -0.10293709798E+01 -0.22974615996E+01 -0.25944948652E+01  0.40282833839E+01  0.17770000000E+01 0. -1.
</event>
<event>
 6    1  0.3691007E-002  0.4836500E+02  0.7546771E-02  0.1305095E+00
        -11   -1    0    0    0    0  0.00000000000E+00  0.00000000000E+00  0.45600000000E+02  0.45600000000E+02  0.00000000000E+00 0.  1.
         11   -1    0    0    0    0 -0.00000000000E+00 -0.00000000000E+00 -0.45600000000E+02  0.45600000000E+02  0.00000000000E+00 0. -1.
        -11    1    1    2    0    0 -0.29701799390E+01 -0.70040513817E+00  0.42726157416E+02  0.42834998118E+02  0.00000000000E+00 0.  1.
         11    1    1    2    0    0 -0.10150390239E+01 -0.14651567669E+01 -0.35796448688E+02  0.35840796967E+02  0.00000000000E+00 0. -1.
        -15    1    1    2    0    0  0.61604968100E+01  0.31470736056E+01 -0.34077997066E+01  0.79136983178E+01  0.17770000000E+01 0.  1.
         15    1    1    2    0    0 -0.21752778472E+01 -0.98151170048E+00 -0.35219090214E+01  0.46105065975E+01  0.17770000000E+01 0.  1.
</event>
<event>
 6    1  0.3691007E-002  0.4625507E+02  0.7546771E-02  0.1314926E+00
        -11   -1    0    0    0    0  0.00000000000E+00  0.00000000000E+00  0.45600000000E+02  0.45600000000E+02  0.00000000000E+00 0. -1.
         11   -1    0    0    0    0 -0.00000000000E+00 -0.00000000000E+00 -0.45600000000E+02  0.45600000000E+02  0.00000000000E+00 0. -1.
        -11    1    1    2    0    0 -0.15852758058E+01  0.87592239181E+00  0.29210920425E+02  0.29267015760E+02  0.00000000000E+00 0. -1.
         11    1    1    2    0    0 -0.10244930090E+01 -0.45069853347E+00 -0.44930991995E+02  0.44944930267E+02  0.00000000000E+00 0. -1.
        -15    1    1    2    0    0  0.27929232331E+01 -0.15312461728E+01  0.13261882495E+02  0.13754286289E+02  0.17770000000E+01 0. -1.
         15    1    1    2    0    0 -0.18315441833E+00  0.11060223144E+01  0.24581890748E+01  0.32337676831E+01  0.17770000000E+01 0.  1.
</event>
<event>
 6    1  0.3691007E-002  0.4727691E+02  0.7546771E-02  0.1310091E+00
        -11   -1    0    0    0    0  0.00000000000E+00  0.00000000000E+00  0.45600000000E+02  0.45600000000E+02  0.00000000000E+00 0. -1.
         11   -1    0    0    0    0 -0.00000000000E+00 -0.00000000000E+00 -0.45600000000E+02  0.45600000000E+02  0.00000000000E+00 0. -1.
        -11    1    1    2    0    0 -0.34053419121E+01 -0.83982074774E+00  0.43782834608E+02  0.43923094822E+02  0.00000000000E+00 0. -1.
         11    1    1    2    0    0  0.12207811269E+00 -0.77166849353E+00 -0.31405594408E+02  0.31415310526E+02  0.00000000000E+00 0. -1.
        -15    1    1    2    0    0  0.43927658470E+01  0.15462597010E+01 -0.21613381254E+01  0.54329018343E+01  0.17770000000E+01 0.  1.
         15    1    1    2    0    0 -0.11095020476E+01  0.65229540258E-01 -0.10215902075E+02  0.10428692818E+02  0.17770000000E+01 0.  1.
</event>
<event>
 6    1  0.3691007E-002  0.4581528E+02  0.7546771E-02  0.1317052E+00
        -11   -1    0    0    0    0  0.00000000000E+00  0.00000000000E+00  0.45600000000E+02  0.45600000000E+02  0.00000000000E+00 0. -1.
         11   -1    0    0    0    0 -0.00000000000E+00 -0.00000000000E+00 -0.45600000000E+02  0.45600000000E+02  0.00000000000E+00 0. -1.
        -11    1    1    2    0    0  0.10740534157E+01 -0.21856205918E+00  0.92593261100E+01  0.93239734086E+01  0.00000000000E+00 0. -1.
         11    1    1    2    0    0 -0.49432849597E-01 -0.13546209098E+01 -0.45364473871E+02  0.45384721339E+02  0.00000000000E+00 0. -1.
        -15    1    1    2    0    0 -0.20447252158E+01 -0.34631354586E-02  0.18673456650E+02  0.18868932812E+02  0.17770000000E+01 0.  1.
         15    1    1    2    0    0  0.10201046498E+01  0.15766461044E+01  0.17431691111E+02  0.17622372440E+02  0.17770000000E+01 0. -1.
</event>
<event>
 6    1  0.3691007E-002  0.3941910E+02  0.7546771E-02  0.1351458E+00
        -11   -1    0    0    0    0  0.00000000000E+00  0.00000000000E+00  0.45600000000E+02  0.45600000000E+02  0.00000000000E+00 0. -1.
         11   -1    0    0    0    0 -0.00000000000E+00 -0.00000000000E+00 -0.45600000000E+02  0.45600000000E+02  0.00000000000E+00 0. -1.
        -11    1    1    2    0    0  0.14869519094E-01  0.11998501616E+01  0.41069018770E+02  0.41086544808E+02  0.00000000000E+00 0. -1.
         11    1    1    2    0    0 -0.50055051277E+01 -0.32038743958E+00 -0.37655485288E+02  0.37988067889E+02  0.00000000000E+00 0. -1.
        -15    1    1    2    0    0  0.77169226845E+01  0.52795774807E+00 -0.32497207534E+01  0.85760159210E+01  0.17770000000E+01 0. -1.
         15    1    1    2    0    0 -0.27262870759E+01 -0.14074204701E+01 -0.16381272863E+00  0.35493713824E+01  0.17770000000E+01 0.  1.
</event>
<event>
 6    1  0.3691007E-002  0.3710807E+02  0.7546771E-02  0.1365807E+00
        -11   -1    0    0    0    0  0.00000000000E+00  0.00000000000E+00  0.45600000000E+02  0.45600000000E+02  0.00000000000E+00 0.  1.
         11   -1    0    0    0    0 -0.00000000000E+00 -0.00000000000E+00 -0.45600000000E+02  0.45600000000E+02  0.00000000000E+00 0.  1.
        -11    1    1    2    0    0 -0.38112228232E+01 -0.55833251381E+01  0.36926700419E+02  0.37540380164E+02  0.00000000000E+00 0.  1.
         11    1    1    2    0    0 -0.13450517952E-01  0.64896320065E+00 -0.36932175894E+02  0.36937879614E+02  0.00000000000E+00 0.  1.
        -15    1    1    2    0    0  0.51661333704E+00  0.14124966434E+01 -0.73690005295E+01  0.77279967593E+01  0.17770000000E+01 0. -1.
         15    1    1    2    0    0  0.33080600041E+01  0.35218652940E+01  0.73744760043E+01  0.89937434630E+01  0.17770000000E+01 0.  1.
</event>
<event>
 6    1  0.3691007E-002  0.4819473E+02  0.7546771E-02  0.1305867E+00
        -11   -1    0    0    0    0  0.00000000000E+00  0.00000000000E+00  0.45600000000E+02  0.45600000000E+02  0.00000000000E+00 0.  1.
         11   -1    0    0    0    0 -0.00000000000E+00 -0.00000000000E+00 -0.45600000000E+02  0.45600000000E+02  0.00000000000E+00 0.  1.
        -11    1    1    2    0    0 -0.11841222278E+01 -0.66084444236E-01  0.42988917657E+02  0.43005273559E+02  0.00000000000E+00 0.  1.
         11    1    1    2    0    0  0.42404883637E+00  0.41805280943E+00 -0.42224008297E+02  0.42228206950E+02  0.00000000000E+00 0.  1.
        -15    1    1    2    0    0  0.14360128863E+01  0.18680950773E+01 -0.74401957790E+00  0.30435516029E+01  0.17770000000E+01 0.  1.
         15    1    1    2    0    0 -0.67593949482E+00 -0.22200634425E+01 -0.20889781379E-01  0.29229678877E+01  0.17770000000E+01 0. -1.
</event>
<event>
 6    1  0.3691007E-002  0.4923838E+02  0.7546771E-02  0.1301193E+00
        -11   -1    0    0    0    0  0.00000000000E+00  0.00000000000E+00  0.45600000000E+02  0.45600000000E+02  0.00000000000E+00 0. -1.
         11   -1    0    0    0    0 -0.00000000000E+00 -0.00000000000E+00 -0.45600000000E+02  0.45600000000E+02  0.00000000000E+00 0. -1.
        -11    1    1    2    0    0  0.20598008242E+01 -0.29461665250E+01  0.31181773220E+02  0.31388304475E+02  0.00000000000E+00 0. -1.
         11    1    1    2    0    0  0.14451697504E+00  0.11348516768E+02 -0.40397621707E+02  0.41961620054E+02  0.00000000000E+00 0. -1.
        -15    1    1    2    0    0 -0.22964585252E+01 -0.99412949758E+01  0.10839315813E+02  0.14991716508E+02  0.17770000000E+01 0. -1.
         15    1    1    2    0    0  0.92140725984E-01  0.15389447324E+01 -0.16234673265E+01  0.28583589633E+01  0.17770000000E+01 0.  1.
</event>
<event>
 6    1  0.3691007E-002  0.4583720E+02  0.7546771E-02  0.1316945E+00
        -11   -1    0    0    0    0  0.00000000000E+00  0.00000000000E+00  0.45600000000E+02  0.45600000000E+02  0.00000000000E+00 0.  1.
         11   -1    0    0    0    0 -0.00000000000E+00 -0.00000000000E+00 -0.45600000000E+02  0.45600000000E+02  0.00000000000E+00 0.  1.
        -11    1    1    2    0    0 -0.23831904795E+01 -0.17911539871E+01  0.45264725243E+02  0.45362795116E+02  0.00000000000E+00 0.  1.
         11    1    1    2    0    0  0.95711545253E+00 -0.10377979637E+01 -0.12972984807E+02  0.13049575832E+02  0.00000000000E+00 0.  1.
        -15    1    1    2    0    0  0.77569037815E+00  0.15506262491E+01 -0.25535224286E+02  0.25655633800E+02  0.17770000000E+01 0. -1.
         15    1    1    2    0    0  0.65038464878E+00  0.12783257017E+01 -0.67565161501E+01  0.71319952523E+01  0.17770000000E+01 0.  1.
</event>
<event>
 6    1  0.3691007E-002  0.4731632E+02  0.7546771E-02  0.1309908E+00
        -11   -1    0    0    0    0  0.00000000000E+00  0.00000000000E+00  0.45600000000E+02  0.45600000000E+02  0.00000000000E+00 0. -1.
         11   -1    0    0    0    0 -0.00000000000E+00 -0.00000000000E+00 -0.45600000000E+02  0.45600000000E+02  0.00000000000E+00 0.  1.
        -11    1    1    2    0    0  0.34199068284E+01  0.60017610227E+00  0.30006464245E+02  0.30206685858E+02  0.00000000000E+00 0. -1.
         11    1    1    2    0    0  0.20318729397E+00  0.19927508797E+01 -0.43837941723E+02  0.43883681200E+02  0.00000000000E+00 0.  1.
        -15    1    1    2    0    0 -0.48675255609E+01 -0.45668962897E+01  0.11256363913E+02  0.13206543998E+02  0.17770000000E+01 0. -1.
         15    1    1    2    0    0  0.12444314386E+01  0.19739693077E+01  0.25751135653E+01  0.39030889443E+01  0.17770000000E+01 0. -1.
</event>
<event>
 6    1  0.3691007E-002  0.4713616E+02  0.7546771E-02  0.1310749E+00
        -11   -1    0    0    0    0  0.00000000000E+00  0.00000000000E+00  0.45600000000E+02  0.45600000000E+02  0.00000000000E+00 0. -1.
         11   -1    0    0    0    0 -0.00000000000E+00 -0.00000000000E+00 -0.45600000000E+02  0.45600000000E+02  0.00000000000E+00 0.  1.
        -11    1    1    2    0    0 -0.52912388574E+00 -0.22075665016E+00  0.42284412553E+02  0.42288299215E+02  0.00000000000E+00 0. -1.
         11    1    1    2    0    0  0.25112889319E+01  0.14034754080E+00 -0.43991991238E+02  0.44063835087E+02  0.00000000000E+00 0.  1.
        -15    1    1    2    0    0 -0.14358483959E+00 -0.51075617801E+00  0.10922981994E+01  0.21522854913E+01  0.17770000000E+01 0. -1.
         15    1    1    2    0    0 -0.18385802066E+01  0.59116528737E+00  0.61528048554E+00  0.26955802064E+01  0.17770000000E+01 0. -1.
</event>
<event>
 6    1  0.3691007E-002  0.5206460E+02  0.7546771E-02  0.1289175E+00
        -11   -1    0    0    0    0  0.00000000000E+00  0.00000000000E+00  0.45600000000E+02  0.45600000000E+02  0.00000000000E+00 0.  1.
         11   -1    0    0    0    0 -0.00000000000E+00 -0.00000000000E+00 -0.45600000000E+02  0.45600000000E+02  0.00000000000E+00 0. -1.
        -11    1    1    2    0    0  0.77979603198E+00 -0.24991902827E+01  0.39047730219E+02  0.39135396627E+02  0.00000000000E+00 0.  1.
         11    1    1    2    0    0  0.18178196837E+01  0.20007392020E+01 -0.34157988343E+02  0.34264786493E+02  0.00000000000E+00 0. -1.
        -15    1    1    2    0    0 -0.19276986448E+01 -0.19455754904E+01  0.58083281582E+01  0.66630091586E+01  0.17770000000E+01 0. -1.
         15    1    1    2    0    0 -0.66991707083E+00  0.24440265711E+01 -0.10698070034E+02  0.11136807721E+02  0.17770000000E+01 0.  1.
</event>
<event>
 6    1  0.3691007E-002  0.4589605E+02  0.7546771E-02  0.1316659E+00
        -11   -1    0    0    0    0  0.00000000000E+00  0.00000000000E+00  0.45600000000E+02  0.45600000000E+02  0.00000000000E+00 0.  1.
         11   -1    0    0    0    0 -0.00000000000E+00 -0.00000000000E+00 -0.45600000000E+02  0.45600000000E+02  0.00000000000E+00 0. -1.
        -11    1    1    2    0    0  0.88399534222E+00  0.17435847523E+00  0.45294990328E+02  0.45303951234E+02  0.00000000000E+00 0.  1.
         11    1    1    2    0    0 -0.18020224274E+00  0.26265713928E+01 -0.15595703248E+02  0.15816362095E+02  0.00000000000E+00 0. -1.
        -15    1    1    2    0    0 -0.82867744323E+00 -0.11593885816E+01 -0.16942877495E+02  0.17095312662E+02  0.17770000000E+01 0. -1.
         15    1    1    2    0    0  0.12488434374E+00 -0.16415412864E+01 -0.12756409585E+02  0.12984374009E+02  0.17770000000E+01 0.  1.
</event>
<event>
 6    1  0.3691007E-002  0.4688886E+02  0.7546771E-02  0.1311911E+00
        -11   -1    0    0    0    0  0.00000000000E+00  0.00000000000E+00  0.45600000000E+02  0.45600000000E+02  0.00000000000E+00 0. -1.
         11   -1    0    0    0    0 -0.00000000000E+00 -0.00000000000E+00 -0.45600000000E+02  0.45600000000E+02  0.00000000000E+00 0. -1.
        -11    1    1    2    0    0 -0.62919664065E+00 -0.52042935616E+00  0.40117780895E+02  0.40126089755E+02  0.00000000000E+00 0. -1.
         11    1    1    2    0    0 -0.15668988363E+01  0.28167640716E+00 -0.44282526721E+02  0.44311135015E+02  0.00000000000E+00 0. -1.
        -15    1    1    2    0    0  0.21406693645E+01  0.96342248366E+00  0.10932820226E+01  0.31406436905E+01  0.17770000000E+01 0. -1.
         15    1    1    2    0    0  0.55426112464E-01 -0.72466953466E+00  0.30714638035E+01  0.36221315389E+01  0.17770000000E+01 0.  1.
</event>
<event>
 6    1  0.3691007E-002  0.4710278E+02  0.7546771E-02  0.1310905E+00
        -11   -1    0    0    0    0  0.00000000000E+00  0.00000000000E+00  0.45600000000E+02  0.45600000000E+02  0.00000000000E+00 0.  1.
         11   -1    0    0    0    0 -0.00000000000E+00 -0.00000000000E+00 -0.45600000000E+02  0.45600000000E+02  0.00000000000E+00 0. -1.
        -11    1    1    2    0    0 -0.12372238264E+01  0.45762586593E+00  0.44077481817E+02  0.44097217005E+02  0.00000000000E+00 0.  1.
         11    1    1    2    0    0 -0.52542546208E+00  0.59455348151E+00 -0.20953170259E+02  0.20968188040E+02  0.00000000000E+00 0. -1.
        -15    1    1    2    0    0 -0.18490560054E+01 -0.45578840492E+00 -0.21650753159E+02  0.21806870306E+02  0.17770000000E+01 0. -1.
         15    1    1    2    0    0  0.36117052939E+01 -0.59639094252E+00 -0.14735583995E+01  0.43277246497E+01  0.17770000000E+01 0. -1.
</event>
<event>
 6    1  0.3691007E-002  0.4234575E+02  0.7546771E-02  0.1334844E+00
        -11   -1    0    0    0    0  0.00000000000E+00  0.00000000000E+00  0.45600000000E+02  0.45600000000E+02  0.00000000000E+00 0. -1.
         11   -1    0    0    0    0 -0.00000000000E+00 -0.00000000000E+00 -0.45600000000E+02  0.45600000000E+02  0.00000000000E+00 0. -1.
        -11    1    1    2    0    0  0.39298259636E+01 -0.28863381034E+00  0.42239578784E+02  0.42422975584E+02  0.00000000000E+00 0. -1.
         11    1    1    2    0    0 -0.39241509715E+00  0.26721280243E+01 -0.42289733143E+02  0.42375886859E+02  0.00000000000E+00 0. -1.
        -15    1    1    2    0    0 -0.19281234404E+01  0.47691157446E+00  0.12684464679E+00  0.26681310342E+01  0.17770000000E+01 0.  1.
         15    1    1    2    0    0 -0.16092874261E+01 -0.28604057885E+01 -0.76690287630E-01  0.37330065222E+01  0.17770000000E+01 0. -1.
</event>
<event>
 6    1  0.3691007E-002  0.4587804E+02  0.7546771E-02  0.1316747E+00
        -11   -1    0    0    0    0  0.00000000000E+00  0.00000000000E+00  0.45600000000E+02  0.45600000000E+02  0.00000000000E+00 0.  1.
         11   -1    0    0    0    0 -0.00000000000E+00 -0.00000000000E+00 -0.45600000000E+02  0.45600000000E+02  0.00000000000E+00 0.  1.
        -11    1    1    2    0    0 -0.13611375330E+01  0.94172884079E+00  0.45291730403E+02  0.45321963677E+02  0.00000000000E+00 0.  1.
         11    1    1    2    0    0 -0.33626899316E+00  0.56304445404E+00 -0.12656962850E+02  0.12673941947E+02  0.00000000000E+00 0.  1.
        -15    1    1    2    0    0  0.86075000764E+00 -0.91241462083E+00 -0.28553561170E+02  0.28636287740E+02  0.17770000000E+01 0.  1.
         15    1    1    2    0    0  0.83665651852E+00 -0.59235867400E+00 -0.40812063830E+01  0.45678066366E+01  0.17770000000E+01 0. -1.
</event>
<event>
 6    1  0.3691007E-002  0.4611732E+02  0.7546771E-02  0.1315589E+00
        -11   -1    0    0    0    0  0.00000000000E+00  0.00000000000E+00  0.45600000000E+02  0.45600000000E+02  0.00000000000E+00 0.  1.
         11   -1    0    0    0    0 -0.00000000000E+00 -0.00000000000E+00 -0.45600000000E+02  0.45600000000E+02  0.00000000000E+00 0.  1.
        -11    1    1    2    0    0 -0.78190379350E+00 -0.86860390620E+00  0.59435154971E+01  0.60573280209E+01  0.00000000000E+00 0.  1.
         11    1    1    2    0    0  0.16155324686E+00 -0.10165473377E+01 -0.45070930000E+02  0.45082681808E+02  0.00000000000E+00 0.  1.
        -15    1    1    2    0    0  0.11037442153E+01  0.15166191623E+01  0.37458546620E+02  0.37547554233E+02  0.17770000000E+01 0.  1.
         15    1    1    2    0    0 -0.48339366863E+00  0.36853208163E+00  0.16688678824E+01  0.25124359381E+01  0.17770000000E+01 0. -1.
</event>
<event>
 6    1  0.3691007E-002  0.4715736E+02  0.7546771E-02  0.1310650E+00
        -11   -1    0    0    0    0  0.00000000000E+00  0.00000000000E+00  0.45600000000E+02  0.45600000000E+02  0.00000000000E+00 0. -1.
         11   -1    0    0    0    0 -0.00000000000E+00 -0.00000000000E+00 -0.45600000000E+02  0.45600000000E+02  0.00000000000E+00 0.  1.
        -11    1    1    2    0    0 -0.98183466770E+00 -0.79575952611E+00  0.17414746297E+02  0.17460544697E+02  0.00000000000E+00 0. -1.
         11    1    1    2    0    0 -0.32911412087E+01 -0.25066959260E+01 -0.43847906883E+02  0.44042639260E+02  0.00000000000E+00 0.  1.
        -15    1    1    2    0    0  0.18807446974E+01  0.37398472701E+01  0.26291106909E+02  0.26681523377E+02  0.17770000000E+01 0. -1.
         15    1    1    2    0    0  0.23922311791E+01 -0.43739181801E+00  0.14205367754E+00  0.30152926664E+01  0.17770000000E+01 0.  1.
</event>
<event>
 6    1  0.3691007E-002  0.4658232E+02  0.7546771E-02  0.1313362E+00
        -11   -1    0    0    0    0  0.00000000000E+00  0.00000000000E+00  0.45600000000E+02  0.45600000000E+02  0.00000000000E+00 0.  1.
         11   -1    0    0    0    0 -0.00000000000E+00 -0.00000000000E+00 -0.45600000000E+02  0.45600000000E+02  0.00000000000E+00 0.  1.
        -11    1    1    2    0    0  0.41648952205E+00  0.10421903100E+01  0.44603558822E+02  0.44617676808E+02  0.00000000000E+00 0.  1.
         11    1    1    2    0    0 -0.66637051627E+00  0.66896954883E+00 -0.29741441421E+02  0.29756426327E+02  0.00000000000E+00 0.  1.
        -15    1    1    2    0    0 -0.36708313597E+00 -0.18488464872E+01 -0.90820674167E+00  0.27450959633E+01  0.17770000000E+01 0.  1.
         15    1    1    2    0    0  0.61696413019E+00  0.13768662834E+00 -0.13953910659E+02  0.14080800902E+02  0.17770000000E+01 0.  1.
</event>
<event>
 6    1  0.3691007E-002  0.4058000E+02  0.7546771E-02  0.1344674E+00
        -11   -1    0    0    0    0  0.00000000000E+00  0.00000000000E+00  0.45600000000E+02  0.45600000000E+02  0.00000000000E+00 0.  1.
         11   -1    0    0    0    0 -0.00000000000E+00 -0.00000000000E+00 -0.45600000000E+02  0.45600000000E+02  0.00000000000E+00 0. -1.
        -11    1    1    2    0    0 -0.55924622107E+00  0.99350471245E-01  0.41076424135E+02  0.41080351101E+02  0.00000000000E+00 0.  1.
         11    1    1    2    0    0 -0.57856682923E+00 -0.12495646771E+01 -0.40078262495E+02  0.40101911128E+02  0.00000000000E+00 0. -1.
        -15    1    1    2    0    0  0.48813188453E+00 -0.11889653621E+01 -0.47362229494E+01  0.52193340759E+01  0.17770000000E+01 0.  1.
         15    1    1    2    0    0  0.64968116576E+00  0.23391795680E+01  0.37380613094E+01  0.47984036951E+01  0.17770000000E+01 0. -1.
</event>
<event>
 6    1  0.3691007E-002  0.4296708E+02  0.7546771E-02  0.1331516E+00
        -11   -1    0    0    0    0  0.00000000000E+00  0.00000000000E+00  0.45600000000E+02  0.45600000000E+02  0.00000000000E+00 0. -1.
         11   -1    0    0    0    0 -0.00000000000E+00 -0.00000000000E+00 -0.45600000000E+02  0.45600000000E+02  0.00000000000E+00 0. -1.
        -11    1    1    2    0    0  0.18938282326E+01 -0.14637309388E+00  0.43007238105E+02  0.43049164218E+02  0.00000000000E+00 0. -1.
         11    1    1    2    0    0 -0.71082452295E+00 -0.12734927007E+01 -0.42880174839E+02  0.42904969984E+02  0.00000000000E+00 0. -1.
        -15    1    1    2    0    0 -0.12203928635E+01  0.48587230287E+00 -0.16232033219E+01  0.27418877913E+01  0.17770000000E+01 0. -1.
         15    1    1    2    0    0  0.37389153835E-01  0.93399349167E+00  0.14961400558E+01  0.25039780067E+01  0.17770000000E+01 0.  1.
</event>
<event>
 6    1  0.3691007E-002  0.5104373E+02  0.7546771E-02  0.1293413E+00
        -11   -1    0    0    0    0  0.00000000000E+00  0.00000000000E+00  0.45600000000E+02  0.45600000000E+02  0.00000000000E+00 0.  1.
         11   -1    0    0    0    0 -0.00000000000E+00 -0.00000000000E+00 -0.45600000000E+02  0.45600000000E+02  0.00000000000E+00 0. -1.
        -11    1    1    2    0    0 -0.71097434045E+00  0.31683040416E+00  0.40148726849E+02  0.40156271411E+02  0.00000000000E+00 0.  1.
         11    1    1    2    0    0 -0.33944638818E+00 -0.16420875107E+01 -0.39062592762E+02  0.39098565556E+02  0.00000000000E+00 0. -1.
        -15    1    1    2    0    0 -0.38269986921E+01  0.18983776838E+01  0.28244029240E+01  0.54207691057E+01  0.17770000000E+01 0. -1.
         15    1    1    2    0    0  0.48774194208E+01 -0.57312057727E+00 -0.39105370115E+01  0.65243939274E+01  0.17770000000E+01 0.  1.
</event>
<event>
 6    1  0.4903480E-002  0.5098344E+02  0.7546771E-02  0.1293667E+00
        -11   -1    0    0    0    0  0.00000000000E+00  0.00000000000E+00  0.45600000000E+02  0.45600000000E+02  0.00000000000E+00 0.  1.
         11   -1    0    0    0    0 -0.00000000000E+00 -0.00000000000E+00 -0.45600000000E+02  0.45600000000E+02  0.00000000000E+00 0.  1.
        -11    1    1    2    0    0  0.14510652877E+00 -0.11835542169E+01  0.40198874356E+02  0.40216555745E+02  0.00000000000E+00 0.  1.
         11    1    1    2    0    0 -0.15980006022E+01 -0.19060021065E+01 -0.32268862002E+02  0.32364577934E+02  0.00000000000E+00 0.  1.
        -15    1    1    2    0    0  0.18104307297E+01  0.18798298730E+01 -0.12852988798E+02  0.13235122585E+02  0.17770000000E+01 0.  1.
         15    1    1    2    0    0 -0.35753665622E+00  0.12097264504E+01  0.49229764443E+01  0.53837437362E+01  0.17770000000E+01 0.  1.
</event>
<event>
 6    1  0.3691007E-002  0.4695974E+02  0.7546771E-02  0.1311577E+00
        -11   -1    0    0    0    0  0.00000000000E+00  0.00000000000E+00  0.45600000000E+02  0.45600000000E+02  0.00000000000E+00 0. -1.
         11   -1    0    0    0    0 -0.00000000000E+00 -0.00000000000E+00 -0.45600000000E+02  0.45600000000E+02  0.00000000000E+00 0. -1.
        -11    1    1    2    0    0 -0.12720387192E+01 -0.13698148494E+00  0.42009979214E+02  0.42029456337E+02  0.00000000000E+00 0. -1.
         11    1    1    2    0    0  0.17146308771E+01 -0.66553744150E-01 -0.44206971705E+02  0.44240261480E+02  0.00000000000E+00 0. -1.
        -15    1    1    2    0    0 -0.13639395189E+01 -0.44292748600E+00  0.14139993426E+01  0.26858218314E+01  0.17770000000E+01 0.  1.
         15    1    1    2    0    0  0.92134736103E+00  0.64646271509E+00  0.78299314882E+00  0.22444603522E+01  0.17770000000E+01 0. -1.
</event>
<event>
 6    1  0.3691007E-002  0.4608588E+02  0.7546771E-02  0.1315741E+00
        -11   -1    0    0    0    0  0.00000000000E+00  0.00000000000E+00  0.45600000000E+02  0.45600000000E+02  0.00000000000E+00 0.  1.
         11   -1    0    0    0    0 -0.00000000000E+00 -0.00000000000E+00 -0.45600000000E+02  0.45600000000E+02  0.00000000000E+00 0. -1.
        -11    1    1    2    0    0 -0.23203001041E+01  0.58874594997E+00  0.45050562564E+02  0.45114117543E+02  0.00000000000E+00 0.  1.
         11    1    1    2    0    0  0.17839882626E+01 -0.24989306509E+01 -0.23571676252E+02  0.23770805411E+02  0.00000000000E+00 0. -1.
        -15    1    1    2    0    0  0.87116773032E+00  0.31102216951E+01 -0.10625564449E+02  0.11246900065E+02  0.17770000000E+01 0.  1.
         15    1    1    2    0    0 -0.33485588879E+00 -0.12000369942E+01 -0.10853321862E+02  0.11068176982E+02  0.17770000000E+01 0. -1.
</event>
<event>
 6    1  0.3691007E-002  0.4675281E+02  0.7546771E-02  0.1312554E+00
        -11   -1    0    0    0    0  0.00000000000E+00  0.00000000000E+00  0.45600000000E+02  0.45600000000E+02  0.00000000000E+00 0. -1.
         11   -1    0    0    0    0 -0.00000000000E+00 -0.00000000000E+00 -0.45600000000E+02  0.45600000000E+02  0.00000000000E+00 0.  1.
        -11    1    1    2    0    0  0.19765368029E+00 -0.13456065201E+01  0.31685558100E+02  0.31714733422E+02  0.00000000000E+00 0. -1.
         11    1    1    2    0    0  0.63301587699E+00  0.28528598125E+00 -0.44441767372E+02  0.44447190961E+02  0.00000000000E+00 0.  1.
        -15    1    1    2    0    0 -0.35652522263E+01 -0.11117509713E+00  0.41170843887E+01  0.57298775033E+01  0.17770000000E+01 0.  1.
         15    1    1    2    0    0  0.27345826690E+01  0.11714956360E+01  0.86391248826E+01  0.93081981144E+01  0.17770000000E+01 0.  1.
</event>
<event>
 6    1  0.3691007E-002  0.4723929E+02  0.7546771E-02  0.1310267E+00
        -11   -1    0    0    0    0  0.00000000000E+00  0.00000000000E+00  0.45600000000E+02  0.45600000000E+02  0.00000000000E+00 0.  1.
         11   -1    0    0    0    0 -0.00000000000E+00 -0.00000000000E+00 -0.45600000000E+02  0.45600000000E+02  0.00000000000E+00 0. -1.
        -11    1    1    2    0    0  0.51636557018E+00 -0.11054399338E+01  0.38226160546E+02  0.38245626952E+02  0.00000000000E+00 0.  1.
         11    1    1    2    0    0 -0.70857064013E+00  0.93585139174E-01 -0.43954898555E+02  0.43960709020E+02  0.00000000000E+00 0. -1.
        -15    1    1    2    0    0 -0.16273951003E+01  0.11683766495E+01  0.58591920432E+01  0.64421564097E+01  0.17770000000E+01 0.  1.
         15    1    1    2    0    0  0.18196001703E+01 -0.15652185492E+00 -0.13045403429E+00  0.25515076182E+01  0.17770000000E+01 0.  1.
</event>
<event>
 6    1  0.3691007E-002  0.4925805E+02  0.7546771E-02  0.1301106E+00
        -11   -1    0    0    0    0  0.00000000000E+00  0.00000000000E+00  0.45600000000E+02  0.45600000000E+02  0.00000000000E+00 0. -1.
         11   -1    0    0    0    0 -0.00000000000E+00 -0.00000000000E+00 -0.45600000000E+02  0.45600000000E+02  0.00000000000E+00 0.  1.
        -11    1    1    2    0    0 -0.40446224322E+01  0.29942764096E+01  0.95773823083E+01  0.10819007058E+02  0.00000000000E+00 0. -1.
         11    1    1    2    0    0 -0.87819423398E+00  0.20897984174E+00 -0.41932231771E+02  0.41941947487E+02  0.00000000000E+00 0.  1.
        -15    1    1    2    0    0 -0.11399494463E-01  0.13150207739E+01  0.31369044792E+02  0.31446845784E+02  0.17770000000E+01 0. -1.
         15    1    1    2    0    0  0.49342161607E+01 -0.45182770252E+01  0.98580467014E+00  0.69921996714E+01  0.17770000000E+01 0.  1.
</event>
<event>
 6    1  0.3691007E-002  0.4601608E+02  0.7546771E-02  0.1316078E+00
        -11   -1    0    0    0    0  0.00000000000E+00  0.00000000000E+00  0.45600000000E+02  0.45600000000E+02  0.00000000000E+00 0. -1.
         11   -1    0    0    0    0 -0.00000000000E+00 -0.00000000000E+00 -0.45600000000E+02  0.45600000000E+02  0.00000000000E+00 0.  1.
        -11    1    1    2    0    0  0.11654322375E+01  0.15200935622E+01  0.45143306465E+02  0.45183924524E+02  0.00000000000E+00 0. -1.
         11    1    1    2    0    0  0.84466542742E+00 -0.12331736450E+01 -0.13546108133E+02  0.13628324273E+02  0.00000000000E+00 0.  1.
        -15    1    1    2    0    0 -0.96302941103E+00  0.27488340206E+01 -0.13739017780E+02  0.14156336132E+02  0.17770000000E+01 0.  1.
         15    1    1    2    0    0 -0.10470682539E+01 -0.30357539378E+01 -0.17858180552E+02  0.18231415072E+02  0.17770000000E+01 0.  1.
</event>
<event>
 6    1  0.3691007E-002  0.4636020E+02  0.7546771E-02  0.1314422E+00
        -11   -1    0    0    0    0  0.00000000000E+00  0.00000000000E+00  0.45600000000E+02  0.45600000000E+02  0.00000000000E+00 0.  1.
         11   -1    0    0    0    0 -0.00000000000E+00 -0.00000000000E+00 -0.45600000000E+02  0.45600000000E+02  0.00000000000E+00 0. -1.
        -11    1    1    2    0    0  0.79624133577E+00 -0.51545079653E+00  0.44829768214E+02  0.44839801604E+02  0.00000000000E+00 0.  1.
         11    1    1    2    0    0 -0.16130630688E+01  0.54996665050E+00 -0.28933741581E+02  0.28983889278E+02  0.00000000000E+00 0. -1.
        -15    1    1    2    0    0 -0.25439337777E+01  0.60863436336E+00 -0.71126911591E+01  0.77839668151E+01  0.17770000000E+01 0. -1.
         15    1    1    2    0    0  0.33607555108E+01 -0.64315021734E+00 -0.87833354735E+01  0.95923423024E+01  0.17770000000E+01 0. -1.
</event>
<event>
 6    1  0.3691007E-002  0.4895373E+02  0.7546771E-02  0.1302454E+00
        -11   -1    0    0    0    0  0.00000000000E+00  0.00000000000E+00  0.45600000000E+02  0.45600000000E+02  0.00000000000E+00 0.  1.
         11   -1    0    0    0    0 -0.00000000000E+00 -0.00000000000E+00 -0.45600000000E+02  0.45600000000E+02  0.00000000000E+00 0. -1.
        -11    1    1    2    0    0 -0.30188021393E+01  0.44977200466E+00  0.42135872245E+02  0.42246268368E+02  0.00000000000E+00 0.  1.
         11    1    1    2    0    0  0.59634076220E+00  0.12426280626E+00 -0.38612703040E+02  0.38617507682E+02  0.00000000000E+00 0. -1.
        -15    1    1    2    0    0 -0.13473503435E+01  0.11429378329E+01 -0.50001623617E+01  0.55929430966E+01  0.17770000000E+01 0. -1.
         15    1    1    2    0    0  0.37698117206E+01 -0.17169726439E+01  0.14769931566E+01  0.47432808533E+01  0.17770000000E+01 0.  1.
</event>
<event>
 6    1  0.3691007E-002  0.4226153E+02  0.7546771E-02  0.1335300E+00
        -11   -1    0    0    0    0  0.00000000000E+00  0.00000000000E+00  0.45600000000E+02  0.45600000000E+02  0.00000000000E+00 0. -1.
         11   -1    0    0    0    0 -0.00000000000E+00 -0.00000000000E+00 -0.45600000000E+02  0.45600000000E+02  0.00000000000E+00 0. -1.
        -11    1    1    2    0    0 -0.30549886982E+00  0.34435829957E+01  0.41648588884E+02  0.41791823955E+02  0.00000000000E+00 0. -1.
         11    1    1    2    0    0  0.30283436487E+00  0.49527026270E+00 -0.42827235128E+02  0.42831169375E+02  0.00000000000E+00 0. -1.
        -15    1    1    2    0    0  0.13872126968E+01 -0.10045650825E+01 -0.49423916593E+00  0.25170441840E+01  0.17770000000E+01 0.  1.
         15    1    1    2    0    0 -0.13845481918E+01 -0.29342881759E+01  0.16728854099E+01  0.40599624862E+01  0.17770000000E+01 0. -1.
</event>
<event>
 6    1  0.3691007E-002  0.4128325E+02  0.7546771E-02  0.1340691E+00
        -11   -1    0    0    0    0  0.00000000000E+00  0.00000000000E+00  0.45600000000E+02  0.45600000000E+02  0.00000000000E+00 0.  1.
         11   -1    0    0    0    0 -0.00000000000E+00 -0.00000000000E+00 -0.45600000000E+02  0.45600000000E+02  0.00000000000E+00 0. -1.
        -11    1    1    2    0    0  0.53594933368E+00 -0.39928431231E+00  0.40828708819E+02  0.40834178497E+02  0.00000000000E+00 0.  1.
         11    1    1    2    0    0 -0.27159149581E+01  0.41428400653E+00 -0.41674973213E+02  0.41765430892E+02  0.00000000000E+00 0. -1.
        -15    1    1    2    0    0  0.44670935861E+01  0.14140757919E+01 -0.62746786415E+00  0.50503445796E+01  0.17770000000E+01 0. -1.
         15    1    1    2    0    0 -0.22871279616E+01 -0.14290754862E+01  0.14737322579E+01  0.35500460315E+01  0.17770000000E+01 0.  1.
</event>
<event>
 6    1  0.3691007E-002  0.4616060E+02  0.7546771E-02  0.1315381E+00
        -11   -1    0    0    0    0  0.00000000000E+00  0.00000000000E+00  0.45600000000E+02  0.45600000000E+02  0.00000000000E+00 0. -1.
         11   -1    0    0    0    0 -0.00000000000E+00 -0.00000000000E+00 -0.45600000000E+02  0.45600000000E+02  0.00000000000E+00 0.  1.
        -11    1    1    2    0    0  0.19831826688E+01  0.28494297039E+01  0.44905399824E+02  0.45039396049E+02  0.00000000000E+00 0. -1.
         11    1    1    2    0    0 -0.67463461494E+00 -0.10720729583E+01 -0.33056806231E+02  0.33081065740E+02  0.00000000000E+00 0.  1.
        -15    1    1    2    0    0  0.59167219725E+00  0.56219669708E+00 -0.53955785657E+01  0.57390014962E+01  0.17770000000E+01 0.  1.
         15    1    1    2    0    0 -0.19002202511E+01 -0.23395534426E+01 -0.64530150278E+01  0.73405367149E+01  0.17770000000E+01 0.  1.
</event>
<event>
 6    1  0.3691007E-002  0.4714995E+02  0.7546771E-02  0.1310684E+00
        -11   -1    0    0    0    0  0.00000000000E+00  0.00000000000E+00  0.45600000000E+02  0.45600000000E+02  0.00000000000E+00 0.  1.
         11   -1    0    0    0    0 -0.00000000000E+00 -0.00000000000E+00 -0.45600000000E+02  0.45600000000E+02  0.00000000000E+00 0. -1.
        -11    1    1    2    0    0 -0.11220018939E+01 -0.15514580941E+01  0.41238428565E+02  0.41282852385E+02  0.00000000000E+00 0.  1.
         11    1    1    2    0    0  0.63303239209E+00 -0.53918415084E+00 -0.44042198233E+02  0.44050047386E+02  0.00000000000E+00 0. -1.
        -15    1    1    2    0    0  0.48285685047E-01  0.13362968359E+01  0.31509887388E+01  0.38567447119E+01  0.17770000000E+01 0.  1.
         15    1    1    2    0    0  0.44068381678E+00  0.75434540908E+00 -0.34721907168E+00  0.20103555174E+01  0.17770000000E+01 0.  1.
</event>
<event>
 6    1  0.3691007E-002  0.4143833E+02  0.7546771E-02  0.1339825E+00
        -11   -1    0    0    0    0  0.00000000000E+00  0.00000000000E+00  0.45600000000E+02  0.45600000000E+02  0.00000000000E+00 0.  1.
         11   -1    0    0    0    0 -0.00000000000E+00 -0.00000000000E+00 -0.45600000000E+02  0.45600000000E+02  0.00000000000E+00 0. -1.
        -11    1    1    2    0    0 -0.31530435954E+00 -0.73856034621E+00  0.41471607235E+02  0.41479381564E+02  0.00000000000E+00 0.  1.
         11    1    1    2    0    0 -0.76547828084E+00 -0.92479083275E+00 -0.41403649071E+02  0.41421049618E+02  0.00000000000E+00 0. -1.
        -15    1    1    2    0    0 -0.92752848029E+00 -0.62213109702E+00  0.29771673799E+01  0.36426104364E+01  0.17770000000E+01 0. -1.
         15    1    1    2    0    0  0.20083111207E+01  0.22854822760E+01 -0.30451255441E+01  0.46569583818E+01  0.17770000000E+01 0.  1.
</event>
<event>
 6    1  0.3691007E-002  0.4718270E+02  0.7546771E-02  0.1310531E+00
        -11   -1    0    0    0    0  0.00000000000E+00  0.00000000000E+00  0.45600000000E+02  0.45600000000E+02  0.00000000000E+00 0.  1.
         11   -1    0    0    0    0 -0.00000000000E+00 -0.00000000000E+00 -0.45600000000E+02  0.45600000000E+02  0.00000000000E+00 0. -1.
        -11    1    1    2    0    0  0.62005017042E+00 -0.28253526846E+00  0.44012024121E+02  0.44017298368E+02  0.00000000000E+00 0.  1.
         11    1    1    2    0    0 -0.42679712802E+01 -0.21075437353E+01 -0.31277308861E+02  0.31637436195E+02  0.00000000000E+00 0. -1.
        -15    1    1    2    0    0  0.11687737524E+01 -0.22445407272E+01 -0.28264964011E+01  0.41893682180E+01  0.17770000000E+01 0.  1.
         15    1    1    2    0    0  0.24791473574E+01  0.46346197310E+01 -0.99082188593E+01  0.11355897218E+02  0.17770000000E+01 0. -1.
</event>
<event>
 6    1  0.3691007E-002  0.4614067E+02  0.7546771E-02  0.1315477E+00
        -11   -1    0    0    0    0  0.00000000000E+00  0.00000000000E+00  0.45600000000E+02  0.45600000000E+02  0.00000000000E+00 0. -1.
         11   -1    0    0    0    0 -0.00000000000E+00 -0.00000000000E+00 -0.45600000000E+02  0.45600000000E+02  0.00000000000E+00 0. -1.
        -11    1    1    2    0    0  0.65137542523E-01 -0.71670820447E+00  0.21856449201E+02  0.21868294063E+02  0.00000000000E+00 0. -1.
         11    1    1    2    0    0 -0.11386527476E+01  0.62188306839E+00 -0.45040651317E+02  0.45059333547E+02  0.00000000000E+00 0. -1.
        -15    1    1    2    0    0  0.65198743591E+00 -0.25538047840E+01  0.60045407136E+01  0.67940595134E+01  0.17770000000E+01 0.  1.
         15    1    1    2    0    0  0.42152776912E+00  0.26486299201E+01  0.17179661402E+02  0.17478312877E+02  0.17770000000E+01 0. -1.
</event>
<event>
 6    1  0.3691007E-002  0.4596361E+02  0.7546771E-02  0.1316332E+00
        -11   -1    0    0    0    0  0.00000000000E+00  0.00000000000E+00  0.45600000000E+02  0.45600000000E+02  0.00000000000E+00 0.  1.
         11   -1    0    0    0    0 -0.00000000000E+00 -0.00000000000E+00 -0.45600000000E+02  0.45600000000E+02  0.00000000000E+00 0. -1.
        -11    1    1    2    0    0 -0.30999778129E+00 -0.62009580338E+00  0.31687380639E+02  0.31694963467E+02  0.00000000000E+00 0.  1.
         11    1    1    2    0    0 -0.79721770997E+00  0.89384133246E+00 -0.45220533490E+02  0.45236391960E+02  0.00000000000E+00 0. -1.
        -15    1    1    2    0    0  0.10733488527E+01 -0.12527323215E+01  0.85787252968E+01  0.89148007688E+01  0.17770000000E+01 0.  1.
         15    1    1    2    0    0  0.33866638570E-01  0.97898679246E+00  0.49544275547E+01  0.53538438046E+01  0.17770000000E+01 0. -1.
</event>
<event>
 6    1  0.3691007E-002  0.5050712E+02  0.7546771E-02  0.1295686E+00
        -11   -1    0    0    0    0  0.00000000000E+00  0.00000000000E+00  0.45600000000E+02  0.45600000000E+02  0.00000000000E+00 0.  1.
         11   -1    0    0    0    0 -0.00000000000E+00 -0.00000000000E+00 -0.45600000000E+02  0.45600000000E+02  0.00000000000E+00 0.  1.
        -11    1    1    2    0    0  0.60717716167E+01  0.13614718655E+01  0.40214308090E+02  0.40692881336E+02  0.00000000000E+00 0.  1.
         11    1    1    2    0    0 -0.66482657487E+00  0.38306668899E+01 -0.34698162397E+02  0.34915304337E+02  0.00000000000E+00 0.  1.
        -15    1    1    2    0    0 -0.24154930200E+01 -0.33927334764E+01 -0.91750813120E+01  0.10231573342E+02  0.17770000000E+01 0. -1.
         15    1    1    2    0    0 -0.29914520219E+01 -0.17994052791E+01  0.36589356190E+01  0.53602409854E+01  0.17770000000E+01 0.  1.
</event>
<event>
 6    1  0.3691007E-002  0.4587574E+02  0.7546771E-02  0.1316758E+00
        -11   -1    0    0    0    0  0.00000000000E+00  0.00000000000E+00  0.45600000000E+02  0.45600000000E+02  0.00000000000E+00 0.  1.
         11   -1    0    0    0    0 -0.00000000000E+00 -0.00000000000E+00 -0.45600000000E+02  0.45600000000E+02  0.00000000000E+00 0.  1.
        -11    1    1    2    0    0 -0.13286037882E+01 -0.64617459953E+00  0.45300171945E+02  0.45324257389E+02  0.00000000000E+00 0.  1.
         11    1    1    2    0    0 -0.18173556560E+00  0.60641946053E+00 -0.30247987213E+02  0.30254611265E+02  0.00000000000E+00 0.  1.
        -15    1    1    2    0    0  0.52285669608E+00  0.89260895770E-01 -0.43715961231E+01  0.47486764783E+01  0.17770000000E+01 0. -1.
         15    1    1    2    0    0  0.98748265773E+00 -0.49505756766E-01 -0.10680588609E+02  0.10872454867E+02  0.17770000000E+01 0.  1.
</event>
<event>
 6    1  0.3691007E-002  0.4609850E+02  0.7546771E-02  0.1315680E+00
        -11   -1    0    0    0    0  0.00000000000E+00  0.00000000000E+00  0.45600000000E+02  0.45600000000E+02  0.00000000000E+00 0.  1.
         11   -1    0    0    0    0 -0.00000000000E+00 -0.00000000000E+00 -0.45600000000E+02  0.45600000000E+02  0.00000000000E+00 0. -1.
        -11    1    1    2    0    0  0.13165289051E+01  0.26565742674E-01  0.26454742668E+02  0.26487494478E+02  0.00000000000E+00 0.  1.
         11    1    1    2    0    0  0.50673342951E+00  0.11060866067E+01 -0.45085087828E+02  0.45101500538E+02  0.00000000000E+00 0. -1.
        -15    1    1    2    0    0 -0.95339765748E+00 -0.66533091784E+00  0.22084543231E+01  0.30637610580E+01  0.17770000000E+01 0.  1.
         15    1    1    2    0    0 -0.86986467716E+00 -0.46732143156E+00  0.16421890837E+02  0.16547243926E+02  0.17770000000E+01 0. -1.
</event>
<event>
 6    1  0.3691007E-002  0.4711557E+02  0.7546771E-02  0.1310845E+00
        -11   -1    0    0    0    0  0.00000000000E+00  0.00000000000E+00  0.45600000000E+02  0.45600000000E+02  0.00000000000E+00 0. -1.
         11   -1    0    0    0    0 -0.00000000000E+00 -0.00000000000E+00 -0.45600000000E+02  0.45600000000E+02  0.00000000000E+00 0.  1.
        -11    1    1    2    0    0  0.62573553190E+00 -0.11657322200E+01  0.42152205498E+02  0.42172964146E+02  0.00000000000E+00 0. -1.
         11    1    1    2    0    0  0.68554489260E+00  0.95487459893E+00 -0.44068752936E+02  0.44084427439E+02  0.00000000000E+00 0.  1.
        -15    1    1    2    0    0 -0.74467498453E+00  0.10745701330E+01  0.11450755246E+00  0.22090909404E+01  0.17770000000E+01 0.  1.
         15    1    1    2    0    0 -0.56660543998E+00 -0.86371251197E+00  0.18020398862E+01  0.27335174738E+01  0.17770000000E+01 0. -1.
</event>
<event>
 6    1  0.3691007E-002  0.4181794E+02  0.7546771E-02  0.1337723E+00
        -11   -1    0    0    0    0  0.00000000000E+00  0.00000000000E+00  0.45600000000E+02  0.45600000000E+02  0.00000000000E+00 0.  1.
         11   -1    0    0    0    0 -0.00000000000E+00 -0.00000000000E+00 -0.45600000000E+02  0.45600000000E+02  0.00000000000E+00 0.  1.
        -11    1    1    2    0    0  0.84116620555E+00 -0.28158712435E+00  0.41730325521E+02  0.41739752275E+02  0.00000000000E+00 0.  1.
         11    1    1    2    0    0  0.31936180389E+00  0.14192877070E+01 -0.41886813213E+02  0.41912068557E+02  0.00000000000E+00 0.  1.
        -15    1    1    2    0    0 -0.27139950777E+01  0.53853399819E+00 -0.20790809741E+01  0.38905134424E+01  0.17770000000E+01 0.  1.
         15    1    1    2    0    0  0.15534670682E+01 -0.16762345808E+01  0.22355686663E+01  0.36576657261E+01  0.17770000000E+01 0.  1.
</event>
<event>
 6    1  0.3691007E-002  0.4593121E+02  0.7546771E-02  0.1316489E+00
        -11   -1    0    0    0    0  0.00000000000E+00  0.00000000000E+00  0.45600000000E+02  0.45600000000E+02  0.00000000000E+00 0.  1.
         11   -1    0    0    0    0 -0.00000000000E+00 -0.00000000000E+00 -0.45600000000E+02  0.45600000000E+02  0.00000000000E+00 0. -1.
        -11    1    1    2    0    0  0.11401297105E+00  0.15412197274E+01  0.45242405286E+02  0.45268792709E+02  0.00000000000E+00 0.  1.
         11    1    1    2    0    0  0.69378723403E+00 -0.12271125349E-01 -0.21395404228E+02  0.21406653484E+02  0.00000000000E+00 0. -1.
        -15    1    1    2    0    0 -0.10814487602E+01  0.53622877332E+00 -0.45196308792E+01  0.50041847491E+01  0.17770000000E+01 0.  1.
         15    1    1    2    0    0  0.27364855510E+00 -0.20651773754E+01 -0.19327370179E+02  0.19520369058E+02  0.17770000000E+01 0. -1.
</event>
<event>
 6    1  0.3691007E-002  0.4740765E+02  0.7546771E-02  0.1309483E+00
        -11   -1    0    0    0    0  0.00000000000E+00  0.00000000000E+00  0.45600000000E+02  0.45600000000E+02  0.00000000000E+00 0.  1.
         11   -1    0    0    0    0 -0.00000000000E+00 -0.00000000000E+00 -0.45600000000E+02  0.45600000000E+02  0.00000000000E+00 0. -1.
        -11    1    1    2    0    0  0.71856265454E+00 -0.21263782780E+01  0.36718838589E+02  0.36787374522E+02  0.00000000000E+00 0.  1.
         11    1    1    2    0    0  0.26333211126E+01  0.12872608722E+01 -0.43694143638E+02  0.43792346465E+02  0.00000000000E+00 0. -1.
        -15    1    1    2    0    0  0.34387230070E+00 -0.21027605609E+01  0.36154505156E+01  0.45573085880E+01  0.17770000000E+01 0. -1.
         15    1    1    2    0    0 -0.36957560678E+01  0.29418779668E+01  0.33598545335E+01  0.60629704247E+01  0.17770000000E+01 0.  1.
</event>
<event>
 6    1  0.3691007E-002  0.4705331E+02  0.7546771E-02  0.1311137E+00
        -11   -1    0    0    0    0  0.00000000000E+00  0.00000000000E+00  0.45600000000E+02  0.45600000000E+02  0.00000000000E+00 0. -1.
         11   -1    0    0    0    0 -0.00000000000E+00 -0.00000000000E+00 -0.45600000000E+02  0.45600000000E+02  0.00000000000E+00 0.  1.
        -11    1    1    2    0    0  0.21677637221E+00  0.82936723984E+00  0.44138368691E+02  0.44146692206E+02  0.00000000000E+00 0. -1.
         11    1    1    2    0    0  0.63533262440E+00  0.70458185618E-01 -0.17576179485E+02  0.17587799669E+02  0.00000000000E+00 0.  1.
        -15    1    1    2    0    0  0.77422130260E+00 -0.37700218084E+01 -0.21235509998E+01  0.47412741864E+01  0.17770000000E+01 0.  1.
         15    1    1    2    0    0 -0.16263302992E+01  0.28701963830E+01 -0.24438638206E+02  0.24724233939E+02  0.17770000000E+01 0.  1.
</event>
<event>
 6    1  0.3691007E-002  0.5082997E+02  0.7546771E-02  0.1294315E+00
        -11   -1    0    0    0    0  0.00000000000E+00  0.00000000000E+00  0.45600000000E+02  0.45600000000E+02  0.00000000000E+00 0.  1.
         11   -1    0    0    0    0 -0.00000000000E+00 -0.00000000000E+00 -0.45600000000E+02  0.45600000000E+02  0.00000000000E+00 0.  1.
        -11    1    1    2    0    0  0.18197662275E+00 -0.61099097085E+00  0.36541012005E+02  0.36546572806E+02  0.00000000000E+00 0.  1.
         11    1    1    2    0    0 -0.85570714953E+00 -0.77996786303E+00 -0.40353427035E+02  0.40370034160E+02  0.00000000000E+00 0.  1.
        -15    1    1    2    0    0 -0.46213178602E+01 -0.36593149361E+01  0.95914220296E+00  0.62309587811E+01  0.17770000000E+01 0. -1.
         15    1    1    2    0    0  0.52950483870E+01  0.50502737700E+01  0.28532728270E+01  0.80524342530E+01  0.17770000000E+01 0.  1.
</event>
<event>
 6    1  0.3691007E-002  0.4068110E+02  0.7546771E-02  0.1344096E+00
        -11   -1    0    0    0    0  0.00000000000E+00  0.00000000000E+00  0.45600000000E+02  0.45600000000E+02  0.00000000000E+00 0.  1.
         11   -1    0    0    0    0 -0.00000000000E+00 -0.00000000000E+00 -0.45600000000E+02  0.45600000000E+02  0.00000000000E+00 0.  1.
        -11    1    1    2    0    0  0.23268201354E-01 -0.15431756520E+01  0.40477577396E+02  0.40506989574E+02  0.00000000000E+00 0.  1.
         11    1    1    2    0    0  0.34410940313E+01 -0.55556662969E+01 -0.40717002263E+02  0.41238099246E+02  0.00000000000E+00 0.  1.
        -15    1    1    2    0    0 -0.45479026128E-01  0.30237326716E+01  0.13121741955E+01  0.37449376136E+01  0.17770000000E+01 0.  1.
         15    1    1    2    0    0 -0.34188832065E+01  0.40751092774E+01 -0.10727493290E+01  0.57099735661E+01  0.17770000000E+01 0. -1.
</event>
<event>
 6    1  0.3691007E-002  0.4832830E+02  0.7546771E-02  0.1305261E+00
        -11   -1    0    0    0    0  0.00000000000E+00  0.00000000000E+00  0.45600000000E+02  0.45600000000E+02  0.00000000000E+00 0.  1.
         11   -1    0    0    0    0 -0.00000000000E+00 -0.00000000000E+00 -0.45600000000E+02  0.45600000000E+02  0.00000000000E+00 0.  1.
        -11    1    1    2    0    0  0.10873895426E+01 -0.19955547358E-01  0.40027914464E+02  0.40042686605E+02  0.00000000000E+00 0.  1.
         11    1    1    2    0    0  0.14313992842E+01  0.27348573168E+01 -0.42760434208E+02  0.42871704913E+02  0.00000000000E+00 0.  1.
        -15    1    1    2    0    0 -0.12066735662E+01 -0.11547437419E+01 -0.17838486810E+01  0.30214796576E+01  0.17770000000E+01 0. -1.
         15    1    1    2    0    0 -0.13121152607E+01 -0.15601580276E+01  0.45163684251E+01  0.52641288244E+01  0.17770000000E+01 0.  1.
</event>
<event>
 6    1  0.3691007E-002  0.4587281E+02  0.7546771E-02  0.1316772E+00
        -11   -1    0    0    0    0  0.00000000000E+00  0.00000000000E+00  0.45600000000E+02  0.45600000000E+02  0.00000000000E+00 0. -1.
         11   -1    0    0    0    0 -0.00000000000E+00 -0.00000000000E+00 -0.45600000000E+02  0.45600000000E+02  0.00000000000E+00 0.  1.
        -11    1    1    2    0    0 -0.19489139717E+01 -0.72555604933E+00  0.45279459501E+02  0.45327189963E+02  0.00000000000E+00 0. -1.
         11    1    1    2    0    0  0.42532806133E+00 -0.71509797741E+00 -0.26718106331E+02  0.26731058247E+02  0.00000000000E+00 0.  1.
        -15    1    1    2    0    0 -0.18969636741E-01  0.70398412523E+00 -0.48993738202E+01  0.52590442407E+01  0.17770000000E+01 0. -1.
         15    1    1    2    0    0  0.15425555471E+01  0.73666990150E+00 -0.13661979350E+02  0.13882707550E+02  0.17770000000E+01 0.  1.
</event>
<event>
 6    1  0.3691007E-002  0.4634290E+02  0.7546771E-02  0.1314505E+00
        -11   -1    0    0    0    0  0.00000000000E+00  0.00000000000E+00  0.45600000000E+02  0.45600000000E+02  0.00000000000E+00 0. -1.
         11   -1    0    0    0    0 -0.00000000000E+00 -0.00000000000E+00 -0.45600000000E+02  0.45600000000E+02  0.00000000000E+00 0.  1.
        -11    1    1    2    0    0 -0.38486957010E-01 -0.85697938604E+00  0.26008346760E+02  0.26022490198E+02  0.00000000000E+00 0. -1.
         11    1    1    2    0    0  0.23477379501E+01  0.36186454094E+01 -0.44649224564E+02  0.44857103365E+02  0.00000000000E+00 0.  1.
        -15    1    1    2    0    0 -0.19753910506E+01 -0.45629685013E+01  0.99726180937E+01  0.11284223145E+02  0.17770000000E+01 0. -1.
         15    1    1    2    0    0 -0.33385994249E+00  0.18013024780E+01  0.86682597106E+01  0.90361832921E+01  0.17770000000E+01 0. -1.
</event>
<event>
 6    1  0.3691007E-002  0.4915887E+02  0.7546771E-02  0.1301544E+00
        -11   -1    0    0    0    0  0.00000000000E+00  0.00000000000E+00  0.45600000000E+02  0.45600000000E+02  0.00000000000E+00 0.  1.
         11   -1    0    0    0    0 -0.00000000000E+00 -0.00000000000E+00 -0.45600000000E+02  0.45600000000E+02  0.00000000000E+00 0.  1.
        -11    1    1    2    0    0 -0.23118357979E+01  0.11273431529E+01  0.41962377694E+02  0.42041130207E+02  0.00000000000E+00 0.  1.
         11    1    1    2    0    0  0.32000463168E+00  0.31789309241E+01 -0.20637660844E+02  0.20883511436E+02  0.00000000000E+00 0.  1.
        -15    1    1    2    0    0 -0.18563309297E+01 -0.20679667055E-01 -0.22054487698E+02  0.22203705744E+02  0.17770000000E+01 0.  1.
         15    1    1    2    0    0  0.38481620959E+01 -0.42855944099E+01  0.72977084765E+00  0.60716526130E+01  0.17770000000E+01 0.  1.
</event>
<event>
 6    1  0.3691007E-002  0.4655702E+02  0.7546771E-02  0.1313483E+00
        -11   -1    0    0    0    0  0.00000000000E+00  0.00000000000E+00  0.45600000000E+02  0.45600000000E+02  0.00000000000E+00 0. -1.
         11   -1    0    0    0    0 -0.00000000000E+00 -0.00000000000E+00 -0.45600000000E+02  0.45600000000E+02  0.00000000000E+00 0.  1.
        -11    1    1    2    0    0  0.66029043568E+00  0.17567332637E+00  0.44637753697E+02  0.44642982648E+02  0.00000000000E+00 0. -1.
         11    1    1    2    0    0 -0.90605137886E+00 -0.26163217713E+00 -0.35474272747E+02  0.35486806103E+02  0.00000000000E+00 0.  1.
        -15    1    1    2    0    0 -0.18099835437E+01 -0.49622277361E+00 -0.72480082806E+01  0.76950393440E+01  0.17770000000E+01 0. -1.
         15    1    1    2    0    0  0.20557444869E+01  0.58218162437E+00 -0.19154726695E+01  0.33751719048E+01  0.17770000000E+01 0. -1.
</event>
<event>
 6    1  0.3691007E-002  0.4751290E+02  0.7546771E-02  0.1308995E+00
        -11   -1    0    0    0    0  0.00000000000E+00  0.00000000000E+00  0.45600000000E+02  0.45600000000E+02  0.00000000000E+00 0. -1.
         11   -1    0    0    0    0 -0.00000000000E+00 -0.00000000000E+00 -0.45600000000E+02  0.45600000000E+02  0.00000000000E+00 0.  1.
        -11    1    1    2    0    0 -0.16031301038E+01 -0.37472521493E+01  0.43496560159E+02  0.43687099589E+02  0.00000000000E+00 0. -1.
         11    1    1    2    0    0 -0.12014855831E+01  0.55438368528E+00 -0.28350210105E+02  0.28381073304E+02  0.00000000000E+00 0.  1.
        -15    1    1    2    0    0  0.62200769617E+01  0.34790600819E+01 -0.12333846126E+02  0.14355302356E+02  0.17770000000E+01 0.  1.
         15    1    1    2    0    0 -0.34154612748E+01 -0.28619161785E+00 -0.28125039283E+01  0.47765247522E+01  0.17770000000E+01 0. -1.
</event>
<event>
 6    1  0.3691007E-002  0.4630819E+02  0.7546771E-02  0.1314672E+00
        -11   -1    0    0    0    0  0.00000000000E+00  0.00000000000E+00  0.45600000000E+02  0.45600000000E+02  0.00000000000E+00 0.  1.
         11   -1    0    0    0    0 -0.00000000000E+00 -0.00000000000E+00 -0.45600000000E+02  0.45600000000E+02  0.00000000000E+00 0. -1.
        -11    1    1    2    0    0  0.86053727788E+00  0.25163371362E+00  0.44882857617E+02  0.44891811635E+02  0.00000000000E+00 0.  1.
         11    1    1    2    0    0 -0.37782341575E-01 -0.55071350519E+00 -0.36866930035E+02  0.36871062407E+02  0.00000000000E+00 0. -1.
        -15    1    1    2    0    0 -0.29812142145E+00  0.53353089748E+00 -0.90630927824E+00  0.20863022572E+01  0.17770000000E+01 0. -1.
         15    1    1    2    0    0 -0.52463351485E+00 -0.23445110591E+00 -0.71096183044E+01  0.73508237008E+01  0.17770000000E+01 0.  1.
</event>
<event>
 6    1  0.3691007E-002  0.4730875E+02  0.7546771E-02  0.1309943E+00
        -11   -1    0    0    0    0  0.00000000000E+00  0.00000000000E+00  0.45600000000E+02  0.45600000000E+02  0.00000000000E+00 0. -1.
         11   -1    0    0    0    0 -0.00000000000E+00 -0.00000000000E+00 -0.45600000000E+02  0.45600000000E+02  0.00000000000E+00 0.  1.
        -11    1    1    2    0    0  0.48513591341E+00 -0.48886534131E+00  0.40451541479E+02  0.40457404195E+02  0.00000000000E+00 0. -1.
         11    1    1    2    0    0  0.54429229528E-01 -0.89905456163E+00 -0.43882007964E+02  0.43891250661E+02  0.00000000000E+00 0.  1.
        -15    1    1    2    0    0 -0.16346535819E+01  0.13829658729E+01 -0.61361612180E-01  0.27831962176E+01  0.17770000000E+01 0. -1.
         15    1    1    2    0    0  0.10950884390E+01  0.49540300610E-02  0.34918280963E+01  0.40681489262E+01  0.17770000000E+01 0. -1.
</event>
<event>
 6    1  0.3691007E-002  0.4646707E+02  0.7546771E-02  0.1313912E+00
        -11   -1    0    0    0    0  0.00000000000E+00  0.00000000000E+00  0.45600000000E+02  0.45600000000E+02  0.00000000000E+00 0. -1.
         11   -1    0    0    0    0 -0.00000000000E+00 -0.00000000000E+00 -0.45600000000E+02  0.45600000000E+02  0.00000000000E+00 0. -1.
        -11    1    1    2    0    0 -0.16121199873E+01 -0.16496296046E+01  0.44673426676E+02  0.44732932607E+02  0.00000000000E+00 0. -1.
         11    1    1    2    0    0  0.55003081503E+00 -0.21479316373E+01 -0.30843377852E+02  0.30922970452E+02  0.00000000000E+00 0. -1.
        -15    1    1    2    0    0 -0.12627666069E+01  0.34358952937E+01 -0.68596178943E+01  0.79757158067E+01  0.17770000000E+01 0.  1.
         15    1    1    2    0    0  0.23248557792E+01  0.36166594826E+00 -0.69704309292E+01  0.75683811341E+01  0.17770000000E+01 0. -1.
</event>
<event>
 6    1  0.3691007E-002  0.5001210E+02  0.7546771E-02  0.1297812E+00
        -11   -1    0    0    0    0  0.00000000000E+00  0.00000000000E+00  0.45600000000E+02  0.45600000000E+02  0.00000000000E+00 0.  1.
         11   -1    0    0    0    0 -0.00000000000E+00 -0.00000000000E+00 -0.45600000000E+02  0.45600000000E+02  0.00000000000E+00 0.  1.
        -11    1    1    2    0    0 -0.12064835015E+00 -0.10394141450E+01  0.37218472199E+02  0.37233178895E+02  0.00000000000E+00 0.  1.
         11    1    1    2    0    0  0.16105240374E+01  0.10415791761E+00 -0.41156268796E+02  0.41187899895E+02  0.00000000000E+00 0.  1.
        -15    1    1    2    0    0 -0.43523402139E+01 -0.89860132139E+00  0.65686847969E+01  0.81274656956E+01  0.17770000000E+01 0. -1.
         15    1    1    2    0    0  0.28624645267E+01  0.18338575488E+01 -0.26308882002E+01  0.46514555139E+01  0.17770000000E+01 0.  1.
</event>
