<event>
 8    1  0.1798472E-005  0.1825548E+03  0.7546771E-02  0.1068411E+00
        -11   -1    0    0    0    0  0.00000000000E+00  0.00000000000E+00  0.18250000000E+03  0.18250000000E+03  0.00000000000E+00 0.  1.
         11   -1    0    0    0    0 -0.00000000000E+00 -0.00000000000E+00 -0.18250000000E+03  0.18250000000E+03  0.00000000000E+00 0. -1.
         23    2    1    2    0    0 -0.40683340720E+02 -0.15874368750E+02 -0.15251494939E+03  0.18244515336E+03  0.90101578229E+02 0.  0.
         23    2    1    2    0    0  0.40683340720E+02  0.15874368750E+02  0.15251494939E+03  0.18255484664E+03  0.90323487801E+02 0.  0.
        -11    1    4    4    0    0  0.35797361382E+02 -0.10499317972E+02  0.11537855745E+02  0.39048801198E+02  0.00000000000E+00 0. -1.
         11    1    4    4    0    0  0.48859793382E+01  0.26373686722E+02  0.14097709365E+03  0.14350604545E+03  0.00000000000E+00 0.  1.
        -15    1    3    3    0    0  0.20924265703E+02  0.18935143696E+02 -0.32200596854E+02  0.42853246421E+02  0.17770000000E+01 0.  1.
         15    1    3    3    0    0 -0.61607606423E+02 -0.34809512447E+02 -0.12031435254E+03  0.13959190694E+03  0.17770000000E+01 0. -1.
</event>
<event>
 8    1  0.1798472E-005  0.1831298E+03  0.7546771E-02  0.1067955E+00
        -11   -1    0    0    0    0  0.00000000000E+00  0.00000000000E+00  0.18250000000E+03  0.18250000000E+03  0.00000000000E+00 0.  1.
         11   -1    0    0    0    0 -0.00000000000E+00 -0.00000000000E+00 -0.18250000000E+03  0.18250000000E+03  0.00000000000E+00 0. -1.
         23    2    1    2    0    0 -0.87277918113E+01 -0.93864733116E+02  0.12718064734E+03  0.18312979640E+03  0.92058909393E+02 0.  0.
         23    2    1    2    0    0  0.87277918113E+01  0.93864733116E+02 -0.12718064734E+03  0.18187020360E+03  0.89527042999E+02 0.  0.
        -11    1    4    4    0    0  0.39489621717E+01  0.30686862830E+02 -0.11271113014E+03  0.11688060878E+03  0.00000000000E+00 0. -1.
         11    1    4    4    0    0  0.47788296396E+01  0.63177870286E+02 -0.14469517199E+02  0.64989594818E+02  0.00000000000E+00 0.  1.
        -15    1    3    3    0    0 -0.48076510835E+02 -0.72125409404E+02  0.80768544085E+02  0.11849110101E+03  0.17770000000E+01 0.  1.
         15    1    3    3    0    0  0.39348719024E+02 -0.21739323712E+02  0.46412103253E+02  0.64638695389E+02  0.17770000000E+01 0. -1.
</event>
<event>
 8    1  0.1798472E-005  0.1837005E+03  0.7546771E-02  0.1067503E+00
        -11   -1    0    0    0    0  0.00000000000E+00  0.00000000000E+00  0.18250000000E+03  0.18250000000E+03  0.00000000000E+00 0. -1.
         11   -1    0    0    0    0 -0.00000000000E+00 -0.00000000000E+00 -0.18250000000E+03  0.18250000000E+03  0.00000000000E+00 0.  1.
         23    2    1    2    0    0  0.15438853956E+03 -0.20048196430E+02  0.75079391757E+01  0.18129947429E+03  0.92603341739E+02 0.  0.
         23    2    1    2    0    0 -0.15438853956E+03  0.20048196430E+02 -0.75079391757E+01  0.18370052571E+03  0.97220176239E+02 0.  0.
        -11    1    4    4    0    0 -0.62859924634E+02  0.24251039940E+01  0.44413424676E+02  0.77005217653E+02  0.00000000000E+00 0. -1.
         11    1    4    4    0    0 -0.91528614923E+02  0.17623092436E+02 -0.51921363851E+02  0.10669530805E+03  0.00000000000E+00 0.  1.
        -15    1    3    3    0    0  0.57681302797E+02  0.14581431642E+02  0.42088813633E+02  0.72899772312E+02  0.17770000000E+01 0.  1.
         15    1    3    3    0    0  0.96707236760E+02 -0.34629628072E+02 -0.34580874457E+02  0.10839970198E+03  0.17770000000E+01 0. -1.
</event>
<event>
 8    1  0.1798472E-005  0.1827811E+03  0.7546771E-02  0.1068231E+00
        -11   -1    0    0    0    0  0.00000000000E+00  0.00000000000E+00  0.18250000000E+03  0.18250000000E+03  0.00000000000E+00 0.  1.
         11   -1    0    0    0    0 -0.00000000000E+00 -0.00000000000E+00 -0.18250000000E+03  0.18250000000E+03  0.00000000000E+00 0. -1.
         23    2    1    2    0    0  0.15946763709E+02 -0.34721624525E+02 -0.15276470960E+03  0.18278105977E+03  0.92800694128E+02 0.  0.
         23    2    1    2    0    0 -0.15946763709E+02  0.34721624525E+02  0.15276470960E+03  0.18221894023E+03  0.91688577232E+02 0.  0.
        -11    1    4    4    0    0  0.36671532232E+00 -0.29754056603E+02  0.69867213851E+02  0.75939883696E+02  0.00000000000E+00 0.  1.
         11    1    4    4    0    0 -0.16313479032E+02  0.64475681129E+02  0.82897495749E+02  0.10627905653E+03  0.00000000000E+00 0. -1.
        -15    1    3    3    0    0 -0.38976758039E+01  0.17413494815E+02  0.22045802139E+01  0.18067639062E+02  0.17770000000E+01 0.  1.
         15    1    3    3    0    0  0.19844439513E+02 -0.52135119341E+02 -0.15496928981E+03  0.16471342071E+03  0.17770000000E+01 0. -1.
</event>
<event>
 8    1  0.1798472E-005  0.1826825E+03  0.7546771E-02  0.1068310E+00
        -11   -1    0    0    0    0  0.00000000000E+00  0.00000000000E+00  0.18250000000E+03  0.18250000000E+03  0.00000000000E+00 0.  1.
         11   -1    0    0    0    0 -0.00000000000E+00 -0.00000000000E+00 -0.18250000000E+03  0.18250000000E+03  0.00000000000E+00 0. -1.
         23    2    1    2    0    0 -0.27112130806E+02 -0.72483742091E+02  0.13785438031E+03  0.18268249327E+03  0.91542900731E+02 0.  0.
         23    2    1    2    0    0  0.27112130806E+02  0.72483742091E+02 -0.13785438031E+03  0.18231750673E+03  0.90812348192E+02 0.  0.
        -11    1    4    4    0    0 -0.16786717278E+02  0.54672061921E+02 -0.11765020019E+03  0.13081436403E+03  0.00000000000E+00 0. -1.
         11    1    4    4    0    0  0.43898848083E+02  0.17811680170E+02 -0.20204180121E+02  0.51503142699E+02  0.00000000000E+00 0.  1.
        -15    1    3    3    0    0  0.41620572527E+01 -0.31094932230E+02  0.12543522222E+03  0.12931113731E+03  0.17770000000E+01 0.  1.
         15    1    3    3    0    0 -0.31274188058E+02 -0.41388809861E+02  0.12419158088E+02  0.53371355960E+02  0.17770000000E+01 0. -1.
</event>
<event>
 8    1  0.1798472E-005  0.1827832E+03  0.7546771E-02  0.1068230E+00
        -11   -1    0    0    0    0  0.00000000000E+00  0.00000000000E+00  0.18250000000E+03  0.18250000000E+03  0.00000000000E+00 0.  1.
         11   -1    0    0    0    0 -0.00000000000E+00 -0.00000000000E+00 -0.18250000000E+03  0.18250000000E+03  0.00000000000E+00 0. -1.
         23    2    1    2    0    0  0.14812995322E+03 -0.25459392571E+02  0.47705732093E+02  0.18221676974E+03  0.91304165223E+02 0.  0.
         23    2    1    2    0    0 -0.14812995322E+03  0.25459392571E+02 -0.47705732093E+02  0.18278323026E+03  0.92429479496E+02 0.  0.
        -11    1    4    4    0    0 -0.69215020022E+02 -0.34225789072E+02 -0.15728958645E+02  0.78800531561E+02  0.00000000000E+00 0.  1.
         11    1    4    4    0    0 -0.78914933199E+02  0.59685181642E+02 -0.31976773449E+02  0.10398269870E+03  0.00000000000E+00 0. -1.
        -15    1    3    3    0    0 -0.31559556140E+01  0.11955459037E+02  0.20499799412E+02  0.24006094259E+02  0.17770000000E+01 0. -1.
         15    1    3    3    0    0  0.15128590883E+03 -0.37414851608E+02  0.27205932681E+02  0.15821067548E+03  0.17770000000E+01 0.  1.
</event>
<event>
 8    1  0.1798472E-005  0.1827752E+03  0.7546771E-02  0.1068236E+00
        -11   -1    0    0    0    0  0.00000000000E+00  0.00000000000E+00  0.18250000000E+03  0.18250000000E+03  0.00000000000E+00 0.  1.
         11   -1    0    0    0    0 -0.00000000000E+00 -0.00000000000E+00 -0.18250000000E+03  0.18250000000E+03  0.00000000000E+00 0. -1.
         23    2    1    2    0    0  0.50048651053E+02 -0.83200699862E+02  0.12585987022E+03  0.18222480482E+03  0.89095166135E+02 0.  0.
         23    2    1    2    0    0 -0.50048651053E+02  0.83200699862E+02 -0.12585987022E+03  0.18277519518E+03  0.90215525889E+02 0.  0.
        -11    1    4    4    0    0 -0.57912785892E+02  0.23286236240E+02 -0.98102647405E+02  0.11627669154E+03  0.00000000000E+00 0. -1.
         11    1    4    4    0    0  0.78641348394E+01  0.59914463621E+02 -0.27757222818E+02  0.66498503640E+02  0.00000000000E+00 0.  1.
        -15    1    3    3    0    0  0.61247645155E+02 -0.58484173754E+02  0.12954828171E+03  0.15478238801E+03  0.17770000000E+01 0.  1.
         15    1    3    3    0    0 -0.11198994103E+02 -0.24716526108E+02 -0.36884114855E+01  0.27442416804E+02  0.17770000000E+01 0. -1.
</event>
<event>
 8    1  0.1798472E-005  0.1832189E+03  0.7546771E-02  0.1067884E+00
        -11   -1    0    0    0    0  0.00000000000E+00  0.00000000000E+00  0.18250000000E+03  0.18250000000E+03  0.00000000000E+00 0. -1.
         11   -1    0    0    0    0 -0.00000000000E+00 -0.00000000000E+00 -0.18250000000E+03  0.18250000000E+03  0.00000000000E+00 0.  1.
         23    2    1    2    0    0  0.31418305130E+02  0.35804424252E+02  0.15100855895E+03  0.18178113184E+03  0.89284535740E+02 0.  0.
         23    2    1    2    0    0 -0.31418305130E+02 -0.35804424252E+02 -0.15100855895E+03  0.18321886816E+03  0.92176472492E+02 0.  0.
        -11    1    4    4    0    0 -0.33339518171E+02 -0.14162351139E+02 -0.15664003068E+03  0.16077373813E+03  0.00000000000E+00 0.  1.
         11    1    4    4    0    0  0.19212130410E+01 -0.21642073113E+02  0.56314717297E+01  0.22445130029E+02  0.00000000000E+00 0. -1.
        -15    1    3    3    0    0  0.48736112746E+02 -0.11092427355E+02  0.89213375800E+02  0.10227626695E+03  0.17770000000E+01 0.  1.
         15    1    3    3    0    0 -0.17317807616E+02  0.46896851607E+02  0.61795183151E+02  0.79504864889E+02  0.17770000000E+01 0. -1.
</event>
<event>
 8    1  0.1798472E-005  0.1852263E+03  0.7546771E-02  0.1066305E+00
        -11   -1    0    0    0    0  0.00000000000E+00  0.00000000000E+00  0.18250000000E+03  0.18250000000E+03  0.00000000000E+00 0.  1.
         11   -1    0    0    0    0 -0.00000000000E+00 -0.00000000000E+00 -0.18250000000E+03  0.18250000000E+03  0.00000000000E+00 0. -1.
         23    2    1    2    0    0  0.92708176536E+02  0.12418456314E+03  0.11017719363E+02  0.17977367828E+03  0.90446523119E+02 0.  0.
         23    2    1    2    0    0 -0.92708176536E+02 -0.12418456314E+03 -0.11017719363E+02  0.18522632172E+03  0.10085032672E+03 0.  0.
        -11    1    4    4    0    0 -0.47188971023E+02 -0.15219741611E+02  0.32598256233E+02  0.59338738024E+02  0.00000000000E+00 0.  1.
         11    1    4    4    0    0 -0.45519205513E+02 -0.10896482153E+03 -0.43615975596E+02  0.12588758369E+03  0.00000000000E+00 0. -1.
        -15    1    3    3    0    0  0.90985179439E+02  0.57984558979E+02 -0.14310396002E+02  0.10885061837E+03  0.17770000000E+01 0.  1.
         15    1    3    3    0    0  0.17229970972E+01  0.66200004160E+02  0.25328115365E+02  0.70923059908E+02  0.17770000000E+01 0. -1.
</event>
<event>
 8    1  0.1798472E-005  0.1888352E+03  0.7546771E-02  0.1063521E+00
        -11   -1    0    0    0    0  0.00000000000E+00  0.00000000000E+00  0.18250000000E+03  0.18250000000E+03  0.00000000000E+00 0. -1.
         11   -1    0    0    0    0 -0.00000000000E+00 -0.00000000000E+00 -0.18250000000E+03  0.18250000000E+03  0.00000000000E+00 0.  1.
         23    2    1    2    0    0 -0.10954011008E+03 -0.38317655475E+02 -0.96589404804E+02  0.17616483150E+03  0.90759331744E+02 0.  0.
         23    2    1    2    0    0  0.10954011008E+03  0.38317655475E+02  0.96589404804E+02  0.18883516850E+03  0.11341044618E+03 0.  0.
        -11    1    4    4    0    0  0.21506627916E+02  0.41813101030E+02  0.88684578212E+02  0.10037840841E+03  0.00000000000E+00 0. -1.
         11    1    4    4    0    0  0.88033482168E+02 -0.34954455549E+01  0.79048265916E+01  0.88456760091E+02  0.00000000000E+00 0.  1.
        -15    1    3    3    0    0 -0.11996610832E+02 -0.12640558849E+02  0.16885182882E+02  0.24330423947E+02  0.17770000000E+01 0.  1.
         15    1    3    3    0    0 -0.97543499252E+02 -0.25677096626E+02 -0.11347458769E+03  0.15183440755E+03  0.17770000000E+01 0. -1.
</event>
<event>
 7    1  0.1798472E-005  0.1535494E+03  0.7546771E-02  0.1094163E+00
        -11   -1    0    0    0    0  0.00000000000E+00  0.00000000000E+00  0.18250000000E+03  0.18250000000E+03  0.00000000000E+00 0.  1.
         11   -1    0    0    0    0 -0.00000000000E+00 -0.00000000000E+00 -0.18250000000E+03  0.18250000000E+03  0.00000000000E+00 0. -1.
         23    2    1    2    0    0 -0.32065729119E+02 -0.59221692758E+02  0.12609078958E+03  0.16987973780E+03  0.91786808547E+02 0.  0.
        -11    1    1    2    0    0 -0.35206367667E+02 -0.16900043487E+02 -0.67127502361E+02  0.77660809727E+02  0.00000000000E+00 0.  1.
         11    1    1    2    0    0  0.67272096786E+02  0.76121736246E+02 -0.58963287216E+02  0.11745945247E+03  0.00000000000E+00 0. -1.
        -15    1    3    3    0    0  0.74661386631E+01 -0.45856709530E+02  0.11473454737E+02  0.47889236035E+02  0.17770000000E+01 0. -1.
         15    1    3    3    0    0 -0.39531867782E+02 -0.13364983229E+02  0.11461733484E+03  0.12199050177E+03  0.17770000000E+01 0.  1.
</event>
<event>
 8    1  0.1798472E-005  0.1831801E+03  0.7546771E-02  0.1067915E+00
        -11   -1    0    0    0    0  0.00000000000E+00  0.00000000000E+00  0.18250000000E+03  0.18250000000E+03  0.00000000000E+00 0.  1.
         11   -1    0    0    0    0 -0.00000000000E+00 -0.00000000000E+00 -0.18250000000E+03  0.18250000000E+03  0.00000000000E+00 0. -1.
         23    2    1    2    0    0 -0.14105140493E+02  0.20885691704E+02 -0.15785883860E+03  0.18318008109E+03  0.89444743160E+02 0.  0.
         23    2    1    2    0    0  0.14105140493E+02 -0.20885691704E+02  0.15785883860E+03  0.18181991891E+03  0.86625070743E+02 0.  0.
        -11    1    4    4    0    0 -0.31221148933E+02  0.91446516356E+01  0.36843137681E+02  0.49150804555E+02  0.00000000000E+00 0. -1.
         11    1    4    4    0    0  0.45326289426E+02 -0.30030343340E+02  0.12101570092E+03  0.13266911435E+03  0.00000000000E+00 0.  1.
        -15    1    3    3    0    0  0.10020775037E+02  0.42952457065E+02 -0.13799284632E+03  0.14488103003E+03  0.17770000000E+01 0.  1.
         15    1    3    3    0    0 -0.24125915530E+02 -0.22066765360E+02 -0.19865992283E+02  0.38299051059E+02  0.17770000000E+01 0. -1.
</event>
<event>
 8    1  0.1798472E-005  0.1831497E+03  0.7546771E-02  0.1067939E+00
        -11   -1    0    0    0    0  0.00000000000E+00  0.00000000000E+00  0.18250000000E+03  0.18250000000E+03  0.00000000000E+00 0.  1.
         11   -1    0    0    0    0 -0.00000000000E+00 -0.00000000000E+00 -0.18250000000E+03  0.18250000000E+03  0.00000000000E+00 0. -1.
         23    2    1    2    0    0  0.11260303075E+03  0.91102025139E+02  0.65527047508E+02  0.18185025158E+03  0.88298915777E+02 0.  0.
         23    2    1    2    0    0 -0.11260303075E+03 -0.91102025139E+02 -0.65527047508E+02  0.18314974842E+03  0.90945120106E+02 0.  0.
        -11    1    4    4    0    0 -0.89736619797E+02 -0.29822735797E+02 -0.60690529189E+01  0.94757004524E+02  0.00000000000E+00 0.  1.
         11    1    4    4    0    0 -0.22866410953E+02 -0.61279289342E+02 -0.59457994590E+02  0.88392743892E+02  0.00000000000E+00 0. -1.
        -15    1    3    3    0    0  0.78520547234E+02  0.74055880973E+01  0.24658963777E+02  0.82653138455E+02  0.17770000000E+01 0. -1.
         15    1    3    3    0    0  0.34082483516E+02  0.83696437042E+02  0.40868083732E+02  0.99197113128E+02  0.17770000000E+01 0.  1.
</event>
<event>
 8    1  0.1798472E-005  0.1863868E+03  0.7546771E-02  0.1065402E+00
        -11   -1    0    0    0    0  0.00000000000E+00  0.00000000000E+00  0.18250000000E+03  0.18250000000E+03  0.00000000000E+00 0.  1.
         11   -1    0    0    0    0 -0.00000000000E+00 -0.00000000000E+00 -0.18250000000E+03  0.18250000000E+03  0.00000000000E+00 0. -1.
         23    2    1    2    0    0 -0.86871522218E+01 -0.45692999929E+02 -0.14851378018E+03  0.18638682014E+03  0.10256893761E+03 0.  0.
         23    2    1    2    0    0  0.86871522218E+01  0.45692999929E+02  0.14851378018E+03  0.17861317986E+03  0.87652770988E+02 0.  0.
        -11    1    4    4    0    0  0.16500636918E+02  0.64969242814E+02  0.14165068228E+03  0.15671052716E+03  0.00000000000E+00 0.  1.
         11    1    4    4    0    0 -0.78134846962E+01 -0.19276242884E+02  0.68630978938E+01  0.21902652706E+02  0.00000000000E+00 0. -1.
        -15    1    3    3    0    0  0.20922939360E+02  0.11467724640E+02  0.62938904969E+00  0.23933908153E+02  0.17770000000E+01 0.  1.
         15    1    3    3    0    0 -0.29610091582E+02 -0.57160724569E+02 -0.14914316923E+03  0.16245291199E+03  0.17770000000E+01 0. -1.
</event>
<event>
 8    1  0.1798472E-005  0.1826544E+03  0.7546771E-02  0.1068332E+00
        -11   -1    0    0    0    0  0.00000000000E+00  0.00000000000E+00  0.18250000000E+03  0.18250000000E+03  0.00000000000E+00 0.  1.
         11   -1    0    0    0    0 -0.00000000000E+00 -0.00000000000E+00 -0.18250000000E+03  0.18250000000E+03  0.00000000000E+00 0. -1.
         23    2    1    2    0    0  0.81833586477E+02  0.55127214672E+02  0.12358414190E+03  0.18234557733E+03  0.90780635440E+02 0.  0.
         23    2    1    2    0    0 -0.81833586477E+02 -0.55127214672E+02 -0.12358414190E+03  0.18265442267E+03  0.91399410933E+02 0.  0.
        -11    1    4    4    0    0  0.97519807545E+01  0.82415443413E+01 -0.43882723396E+02  0.45702490024E+02  0.00000000000E+00 0.  1.
         11    1    4    4    0    0 -0.91585567231E+02 -0.63368759013E+02 -0.79701418501E+02  0.13695193264E+03  0.00000000000E+00 0. -1.
        -15    1    3    3    0    0  0.64797501889E+02  0.63043857326E+02  0.13333590942E+03  0.16110514165E+03  0.17770000000E+01 0.  1.
         15    1    3    3    0    0  0.17036084588E+02 -0.79166426540E+01 -0.97517675224E+01  0.21240435678E+02  0.17770000000E+01 0. -1.
</event>
<event>
 8    1  0.1798472E-005  0.1825035E+03  0.7546771E-02  0.1068452E+00
        -11   -1    0    0    0    0  0.00000000000E+00  0.00000000000E+00  0.18250000000E+03  0.18250000000E+03  0.00000000000E+00 0. -1.
         11   -1    0    0    0    0 -0.00000000000E+00 -0.00000000000E+00 -0.18250000000E+03  0.18250000000E+03  0.00000000000E+00 0.  1.
         23    2    1    2    0    0  0.13261444841E+03  0.31198853909E+02  0.79678681510E+02  0.18249649437E+03  0.91631423429E+02 0.  0.
         23    2    1    2    0    0 -0.13261444841E+03 -0.31198853909E+02 -0.79678681510E+02  0.18250350563E+03  0.91645386505E+02 0.  0.
        -11    1    4    4    0    0 -0.11738243895E+03  0.10877903417E+02 -0.46191813234E+02  0.12661220071E+03  0.00000000000E+00 0.  1.
         11    1    4    4    0    0 -0.15232009453E+02 -0.42076757326E+02 -0.33486868275E+02  0.55891304922E+02  0.00000000000E+00 0. -1.
        -15    1    3    3    0    0  0.52518323760E+02  0.56780498382E+02  0.54751575501E+02  0.94779175328E+02  0.17770000000E+01 0.  1.
         15    1    3    3    0    0  0.80096124647E+02 -0.25581644473E+02  0.24927106009E+02  0.87717319044E+02  0.17770000000E+01 0. -1.
</event>
<event>
 8    1  0.1798472E-005  0.1826516E+03  0.7546771E-02  0.1068334E+00
        -11   -1    0    0    0    0  0.00000000000E+00  0.00000000000E+00  0.18250000000E+03  0.18250000000E+03  0.00000000000E+00 0.  1.
         11   -1    0    0    0    0 -0.00000000000E+00 -0.00000000000E+00 -0.18250000000E+03  0.18250000000E+03  0.00000000000E+00 0. -1.
         23    2    1    2    0    0  0.38506009749E+00  0.31498243569E+02 -0.15458392682E+03  0.18265156254E+03  0.92049526055E+02 0.  0.
         23    2    1    2    0    0 -0.38506009749E+00 -0.31498243569E+02  0.15458392682E+03  0.18234843746E+03  0.91446566874E+02 0.  0.
        -11    1    4    4    0    0  0.23924772825E+02 -0.20096199466E+02  0.65823130698E+01  0.31930844540E+02  0.00000000000E+00 0. -1.
         11    1    4    4    0    0 -0.24309832922E+02 -0.11402044103E+02  0.14800161375E+03  0.15041759292E+03  0.00000000000E+00 0.  1.
        -15    1    3    3    0    0 -0.33973059337E+02  0.40628906542E+02 -0.52726453906E+02  0.74753685380E+02  0.17770000000E+01 0.  1.
         15    1    3    3    0    0  0.34358119434E+02 -0.91306629730E+01 -0.10185747292E+03  0.10789787716E+03  0.17770000000E+01 0. -1.
</event>
<event>
 8    1  0.1798472E-005  0.1844364E+03  0.7546771E-02  0.1066924E+00
        -11   -1    0    0    0    0  0.00000000000E+00  0.00000000000E+00  0.18250000000E+03  0.18250000000E+03  0.00000000000E+00 0.  1.
         11   -1    0    0    0    0 -0.00000000000E+00 -0.00000000000E+00 -0.18250000000E+03  0.18250000000E+03  0.00000000000E+00 0. -1.
         23    2    1    2    0    0  0.51459420743E+02  0.26098714318E+02 -0.14845289111E+03  0.18056358002E+03  0.85063098223E+02 0.  0.
         23    2    1    2    0    0 -0.51459420743E+02 -0.26098714318E+02  0.14845289111E+03  0.18443641998E+03  0.93001705705E+02 0.  0.
        -11    1    4    4    0    0 -0.34842578075E+02 -0.36539673189E+02  0.15557236129E+03  0.16356011911E+03  0.00000000000E+00 0.  1.
         11    1    4    4    0    0 -0.16616842668E+02  0.10440958872E+02 -0.71194701852E+01  0.20876300873E+02  0.00000000000E+00 0. -1.
        -15    1    3    3    0    0  0.68671468549E+02  0.15192854877E+02 -0.69085524053E+02  0.98603046579E+02  0.17770000000E+01 0. -1.
         15    1    3    3    0    0 -0.17212047806E+02  0.10905859441E+02 -0.79367367055E+02  0.81960533442E+02  0.17770000000E+01 0.  1.
</event>
<event>
 8    1  0.1798472E-005  0.1827237E+03  0.7546771E-02  0.1068277E+00
        -11   -1    0    0    0    0  0.00000000000E+00  0.00000000000E+00  0.18250000000E+03  0.18250000000E+03  0.00000000000E+00 0.  1.
         11   -1    0    0    0    0 -0.00000000000E+00 -0.00000000000E+00 -0.18250000000E+03  0.18250000000E+03  0.00000000000E+00 0. -1.
         23    2    1    2    0    0 -0.80094538098E+02  0.12334318167E+03 -0.57656924789E+02  0.18227627818E+03  0.90948584997E+02 0.  0.
         23    2    1    2    0    0  0.80094538098E+02 -0.12334318167E+03  0.57656924789E+02  0.18272372182E+03  0.91842049428E+02 0.  0.
        -11    1    4    4    0    0  0.20351887906E+02 -0.10598036680E+02  0.49864104386E+02  0.54890314529E+02  0.00000000000E+00 0.  1.
         11    1    4    4    0    0  0.59742650192E+02 -0.11274514499E+03  0.77928204028E+01  0.12783340729E+03  0.00000000000E+00 0. -1.
        -15    1    3    3    0    0  0.58475078713E+01 -0.10541163337E+02 -0.11144264657E+02  0.16512475180E+02  0.17770000000E+01 0.  1.
         15    1    3    3    0    0 -0.85942045970E+02  0.13388434501E+03 -0.46512660132E+02  0.16576380300E+03  0.17770000000E+01 0. -1.
</event>
<event>
 8    1  0.1798472E-005  0.1841739E+03  0.7546771E-02  0.1067130E+00
        -11   -1    0    0    0    0  0.00000000000E+00  0.00000000000E+00  0.18250000000E+03  0.18250000000E+03  0.00000000000E+00 0.  1.
         11   -1    0    0    0    0 -0.00000000000E+00 -0.00000000000E+00 -0.18250000000E+03  0.18250000000E+03  0.00000000000E+00 0. -1.
         23    2    1    2    0    0  0.52075015010E+02  0.63339513267E+02 -0.13606075016E+03  0.18417390518E+03  0.93186900841E+02 0.  0.
         23    2    1    2    0    0 -0.52075015010E+02 -0.63339513267E+02  0.13606075016E+03  0.18082609482E+03  0.86381987150E+02 0.  0.
        -11    1    4    4    0    0 -0.66441481433E+02 -0.14272666888E+02  0.76039165131E+02  0.10198104779E+03  0.00000000000E+00 0. -1.
         11    1    4    4    0    0  0.14366466423E+02 -0.49066846379E+02  0.60021585026E+02  0.78845047023E+02  0.00000000000E+00 0.  1.
        -15    1    3    3    0    0  0.37914176436E+02 -0.84230143395E+01 -0.12982595171E+02  0.40989479769E+02  0.17770000000E+01 0.  1.
         15    1    3    3    0    0  0.14160838575E+02  0.71762527606E+02 -0.12307815499E+03  0.14318442541E+03  0.17770000000E+01 0. -1.
</event>
<event>
 8    1  0.1798472E-005  0.1847560E+03  0.7546771E-02  0.1066673E+00
        -11   -1    0    0    0    0  0.00000000000E+00  0.00000000000E+00  0.18250000000E+03  0.18250000000E+03  0.00000000000E+00 0. -1.
         11   -1    0    0    0    0 -0.00000000000E+00 -0.00000000000E+00 -0.18250000000E+03  0.18250000000E+03  0.00000000000E+00 0.  1.
         23    2    1    2    0    0  0.39059271776E+02 -0.60607904140E+02  0.13749453653E+03  0.18475602965E+03  0.10015537010E+03 0.  0.
         23    2    1    2    0    0 -0.39059271776E+02  0.60607904140E+02 -0.13749453653E+03  0.18024397035E+03  0.91565258232E+02 0.  0.
        -11    1    4    4    0    0  0.12358574504E+02 -0.56109397469E+01  0.53703010999E+01  0.14596477059E+02  0.00000000000E+00 0. -1.
         11    1    4    4    0    0 -0.51417846280E+02  0.66218843887E+02 -0.14286483763E+03  0.16564749329E+03  0.00000000000E+00 0.  1.
        -15    1    3    3    0    0  0.21259501804E+02  0.23232693053E+02  0.65918849054E+02  0.73076513553E+02  0.17770000000E+01 0.  1.
         15    1    3    3    0    0  0.17799769972E+02 -0.83840597193E+02  0.71575687478E+02  0.11167951610E+03  0.17770000000E+01 0. -1.
</event>
<event>
 8    1  0.1798472E-005  0.1833635E+03  0.7546771E-02  0.1067770E+00
        -11   -1    0    0    0    0  0.00000000000E+00  0.00000000000E+00  0.18250000000E+03  0.18250000000E+03  0.00000000000E+00 0. -1.
         11   -1    0    0    0    0 -0.00000000000E+00 -0.00000000000E+00 -0.18250000000E+03  0.18250000000E+03  0.00000000000E+00 0.  1.
         23    2    1    2    0    0 -0.13599925690E+03  0.40452216616E+02  0.69663310379E+02  0.18336348364E+03  0.92935518573E+02 0.  0.
         23    2    1    2    0    0  0.13599925690E+03 -0.40452216616E+02 -0.69663310379E+02  0.18163651636E+03  0.89479984102E+02 0.  0.
        -11    1    4    4    0    0 -0.10829087738E+01  0.23138818038E+00 -0.34324776242E+02  0.34342633795E+02  0.00000000000E+00 0.  1.
         11    1    4    4    0    0  0.13708216568E+03 -0.40683604797E+02 -0.35338534136E+02  0.14729388256E+03  0.00000000000E+00 0. -1.
        -15    1    3    3    0    0 -0.11664527256E+03 -0.23696395444E+01  0.70505033805E+02  0.13632993920E+03  0.17770000000E+01 0.  1.
         15    1    3    3    0    0 -0.19353984342E+02  0.42821856161E+02 -0.84172342649E+00  0.47033544437E+02  0.17770000000E+01 0. -1.
</event>
<event>
 8    1  0.1798472E-005  0.1836466E+03  0.7546771E-02  0.1067546E+00
        -11   -1    0    0    0    0  0.00000000000E+00  0.00000000000E+00  0.18250000000E+03  0.18250000000E+03  0.00000000000E+00 0.  1.
         11   -1    0    0    0    0 -0.00000000000E+00 -0.00000000000E+00 -0.18250000000E+03  0.18250000000E+03  0.00000000000E+00 0. -1.
         23    2    1    2    0    0 -0.35219491699E+02 -0.95339125643E+00 -0.15489259857E+03  0.18364656431E+03  0.92157592959E+02 0.  0.
         23    2    1    2    0    0  0.35219491699E+02  0.95339125643E+00  0.15489259857E+03  0.18135343569E+03  0.87498742821E+02 0.  0.
        -11    1    4    4    0    0 -0.75464398074E+01  0.35805284694E+02  0.83200498438E+02  0.90891639363E+02  0.00000000000E+00 0.  1.
         11    1    4    4    0    0  0.42765931506E+02 -0.34851893438E+02  0.71692100132E+02  0.90461796329E+02  0.00000000000E+00 0. -1.
        -15    1    3    3    0    0 -0.79294455374E+01  0.36809676440E+02 -0.11893585690E+03  0.12476667893E+03  0.17770000000E+01 0.  1.
         15    1    3    3    0    0 -0.27290046161E+02 -0.37763067697E+02 -0.35956741670E+02  0.58879885376E+02  0.17770000000E+01 0. -1.
</event>
<event>
 8    1  0.1798472E-005  0.1833798E+03  0.7546771E-02  0.1067757E+00
        -11   -1    0    0    0    0  0.00000000000E+00  0.00000000000E+00  0.18250000000E+03  0.18250000000E+03  0.00000000000E+00 0.  1.
         11   -1    0    0    0    0 -0.00000000000E+00 -0.00000000000E+00 -0.18250000000E+03  0.18250000000E+03  0.00000000000E+00 0. -1.
         23    2    1    2    0    0  0.21030672256E+02  0.86728879482E+02 -0.13204075709E+03  0.18337984449E+03  0.90715038008E+02 0.  0.
         23    2    1    2    0    0 -0.21030672256E+02 -0.86728879482E+02  0.13204075709E+03  0.18162015551E+03  0.87102994461E+02 0.  0.
        -11    1    4    4    0    0  0.75807040978E+01 -0.85386953739E+02  0.12592202341E+03  0.15233107011E+03  0.00000000000E+00 0.  1.
         11    1    4    4    0    0 -0.28611376354E+02 -0.13419257426E+01  0.61187336816E+01  0.29289085397E+02  0.00000000000E+00 0. -1.
        -15    1    3    3    0    0  0.55255271956E+02  0.36787880104E+02 -0.62976859977E+02  0.91519046231E+02  0.17770000000E+01 0.  1.
         15    1    3    3    0    0 -0.34224599700E+02  0.49940999378E+02 -0.69063897110E+02  0.91860798257E+02  0.17770000000E+01 0. -1.
</event>
<event>
 8    1  0.1798472E-005  0.1825867E+03  0.7546771E-02  0.1068386E+00
        -11   -1    0    0    0    0  0.00000000000E+00  0.00000000000E+00  0.18250000000E+03  0.18250000000E+03  0.00000000000E+00 0.  1.
         11   -1    0    0    0    0 -0.00000000000E+00 -0.00000000000E+00 -0.18250000000E+03  0.18250000000E+03  0.00000000000E+00 0. -1.
         23    2    1    2    0    0  0.77797141743E+02  0.12572975177E+03  0.56816596562E+02  0.18241332034E+03  0.90477223925E+02 0.  0.
         23    2    1    2    0    0 -0.77797141743E+02 -0.12572975177E+03 -0.56816596562E+02  0.18258667966E+03  0.90826230799E+02 0.  0.
        -11    1    4    4    0    0 -0.66290280582E+02 -0.68599972435E+02  0.76274437283E+01  0.95700237281E+02  0.00000000000E+00 0.  1.
         11    1    4    4    0    0 -0.11506861162E+02 -0.57129779334E+02 -0.64444040290E+02  0.86886442380E+02  0.00000000000E+00 0. -1.
        -15    1    3    3    0    0  0.38646115346E+02  0.12623143760E+03  0.55440463207E+02  0.14319462545E+03  0.17770000000E+01 0.  1.
         15    1    3    3    0    0  0.39151026398E+02 -0.50168582699E+00  0.13761333544E+01  0.39218694887E+02  0.17770000000E+01 0. -1.
</event>
<event>
 8    1  0.1798472E-005  0.1837541E+03  0.7546771E-02  0.1067461E+00
        -11   -1    0    0    0    0  0.00000000000E+00  0.00000000000E+00  0.18250000000E+03  0.18250000000E+03  0.00000000000E+00 0.  1.
         11   -1    0    0    0    0 -0.00000000000E+00 -0.00000000000E+00 -0.18250000000E+03  0.18250000000E+03  0.00000000000E+00 0. -1.
         23    2    1    2    0    0 -0.31072159716E+02 -0.10552412370E+03  0.11084276707E+03  0.18375412858E+03  0.96843383689E+02 0.  0.
         23    2    1    2    0    0  0.31072159716E+02  0.10552412370E+03 -0.11084276707E+03  0.18124587142E+03  0.91995255873E+02 0.  0.
        -11    1    4    4    0    0 -0.19115929736E+02  0.60647303931E+01 -0.50965565915E+02  0.54769413302E+02  0.00000000000E+00 0.  1.
         11    1    4    4    0    0  0.50188089452E+02  0.99459393311E+02 -0.59877201156E+02  0.12647645812E+03  0.00000000000E+00 0. -1.
        -15    1    3    3    0    0  0.29774706549E+01 -0.10508889848E+03  0.10601607959E+03  0.14931546730E+03  0.17770000000E+01 0.  1.
         15    1    3    3    0    0 -0.34049630371E+02 -0.43522522571E+00  0.48266874799E+01  0.34438661275E+02  0.17770000000E+01 0. -1.
</event>
<event>
 8    1  0.1798472E-005  0.1826939E+03  0.7546771E-02  0.1068301E+00
        -11   -1    0    0    0    0  0.00000000000E+00  0.00000000000E+00  0.18250000000E+03  0.18250000000E+03  0.00000000000E+00 0.  1.
         11   -1    0    0    0    0 -0.00000000000E+00 -0.00000000000E+00 -0.18250000000E+03  0.18250000000E+03  0.00000000000E+00 0. -1.
         23    2    1    2    0    0  0.30981852687E+02 -0.52125676919E+02  0.14580718428E+03  0.18269389098E+03  0.91871439655E+02 0.  0.
         23    2    1    2    0    0 -0.30981852687E+02  0.52125676919E+02 -0.14580718428E+03  0.18230610902E+03  0.91097864992E+02 0.  0.
        -11    1    4    4    0    0 -0.59579237148E+02  0.41688363290E+02 -0.71388310472E+02  0.10190140335E+03  0.00000000000E+00 0. -1.
         11    1    4    4    0    0  0.28597384461E+02  0.10437313629E+02 -0.74418873811E+02  0.80404705665E+02  0.00000000000E+00 0.  1.
        -15    1    3    3    0    0 -0.15739375638E+02 -0.28275004844E+02  0.11982019030E+03  0.12412590212E+03  0.17770000000E+01 0.  1.
         15    1    3    3    0    0  0.46721228325E+02 -0.23850672075E+02  0.25986993986E+02  0.58567988868E+02  0.17770000000E+01 0. -1.
</event>
<event>
 8    1  0.1798472E-005  0.1827364E+03  0.7546771E-02  0.1068267E+00
        -11   -1    0    0    0    0  0.00000000000E+00  0.00000000000E+00  0.18250000000E+03  0.18250000000E+03  0.00000000000E+00 0. -1.
         11   -1    0    0    0    0 -0.00000000000E+00 -0.00000000000E+00 -0.18250000000E+03  0.18250000000E+03  0.00000000000E+00 0.  1.
         23    2    1    2    0    0 -0.16205121500E+02 -0.15929222378E+02 -0.15719471907E+03  0.18273644507E+03  0.90366379622E+02 0.  0.
         23    2    1    2    0    0  0.16205121500E+02  0.15929222378E+02  0.15719471907E+03  0.18226355493E+03  0.89406250687E+02 0.  0.
        -11    1    4    4    0    0 -0.83714241840E+01 -0.24594239681E+02  0.10359464933E+02  0.27969195234E+02  0.00000000000E+00 0.  1.
         11    1    4    4    0    0  0.24576545684E+02  0.40523462058E+02  0.14683525414E+03  0.15429435969E+03  0.00000000000E+00 0. -1.
        -15    1    3    3    0    0 -0.31143693116E+02 -0.23867504140E+01 -0.81582902911E+01  0.32331743348E+02  0.17770000000E+01 0. -1.
         15    1    3    3    0    0  0.14938571616E+02 -0.13542471964E+02 -0.14903642878E+03  0.15040470173E+03  0.17770000000E+01 0.  1.
</event>
<event>
 8    1  0.1798472E-005  0.1826079E+03  0.7546771E-02  0.1068369E+00
        -11   -1    0    0    0    0  0.00000000000E+00  0.00000000000E+00  0.18250000000E+03  0.18250000000E+03  0.00000000000E+00 0.  1.
         11   -1    0    0    0    0 -0.00000000000E+00 -0.00000000000E+00 -0.18250000000E+03  0.18250000000E+03  0.00000000000E+00 0.  1.
         23    2    1    2    0    0 -0.29038850166E+02 -0.54952798080E+02 -0.14389990383E+03  0.18239211360E+03  0.93255755577E+02 0.  0.
         23    2    1    2    0    0  0.29038850166E+02  0.54952798080E+02  0.14389990383E+03  0.18260788640E+03  0.93677067723E+02 0.  0.
        -11    1    4    4    0    0  0.18995105264E+02 -0.53134058432E+01  0.11192425276E+03  0.11364895363E+03  0.00000000000E+00 0.  1.
         11    1    4    4    0    0  0.10043744902E+02  0.60266203924E+02  0.31975651066E+02  0.68958932765E+02  0.00000000000E+00 0.  1.
        -15    1    3    3    0    0 -0.56989048647E+02 -0.13858976704E+02 -0.54454288332E+02  0.80051546816E+02  0.17770000000E+01 0. -1.
         15    1    3    3    0    0  0.27950198481E+02 -0.41093821377E+02 -0.89445615494E+02  0.10234056679E+03  0.17770000000E+01 0.  1.
</event>
<event>
 8    1  0.1798472E-005  0.1837935E+03  0.7546771E-02  0.1067430E+00
        -11   -1    0    0    0    0  0.00000000000E+00  0.00000000000E+00  0.18250000000E+03  0.18250000000E+03  0.00000000000E+00 0.  1.
         11   -1    0    0    0    0 -0.00000000000E+00 -0.00000000000E+00 -0.18250000000E+03  0.18250000000E+03  0.00000000000E+00 0. -1.
         23    2    1    2    0    0  0.45634799120E+02 -0.33804115282E+02 -0.14601803534E+03  0.18379347094E+03  0.96091207783E+02 0.  0.
         23    2    1    2    0    0 -0.45634799120E+02  0.33804115282E+02  0.14601803534E+03  0.18120652906E+03  0.91045518454E+02 0.  0.
        -11    1    4    4    0    0 -0.30142413637E+01 -0.30148743580E+02  0.37019544690E+02  0.47838050541E+02  0.00000000000E+00 0. -1.
         11    1    4    4    0    0 -0.42620557756E+02  0.63952858862E+02  0.10899849065E+03  0.13336847852E+03  0.00000000000E+00 0.  1.
        -15    1    3    3    0    0  0.67749239071E+02 -0.48886611108E+02 -0.98008392595E+02  0.12879698323E+03  0.17770000000E+01 0. -1.
         15    1    3    3    0    0 -0.22114439951E+02  0.15082495826E+02 -0.48009642745E+02  0.54996487708E+02  0.17770000000E+01 0.  1.
</event>
<event>
 8    1  0.1798472E-005  0.1840892E+03  0.7546771E-02  0.1067197E+00
        -11   -1    0    0    0    0  0.00000000000E+00  0.00000000000E+00  0.18250000000E+03  0.18250000000E+03  0.00000000000E+00 0.  1.
         11   -1    0    0    0    0 -0.00000000000E+00 -0.00000000000E+00 -0.18250000000E+03  0.18250000000E+03  0.00000000000E+00 0. -1.
         23    2    1    2    0    0 -0.78094698031E+02  0.53589706398E+02  0.12908930392E+03  0.18408919178E+03  0.90852317821E+02 0.  0.
         23    2    1    2    0    0  0.78094698031E+02 -0.53589706398E+02 -0.12908930392E+03  0.18091080822E+03  0.84226086520E+02 0.  0.
        -11    1    4    4    0    0  0.27068410239E+02 -0.58935888083E+02 -0.10685070119E+03  0.12499284012E+03  0.00000000000E+00 0. -1.
         11    1    4    4    0    0  0.51026287792E+02  0.53461816853E+01 -0.22238602730E+02  0.55917968094E+02  0.00000000000E+00 0.  1.
        -15    1    3    3    0    0 -0.27570047618E+02  0.20565586046E+02  0.11770349895E+03  0.12263899156E+03  0.17770000000E+01 0.  1.
         15    1    3    3    0    0 -0.50524650413E+02  0.33024120352E+02  0.11385804965E+02  0.61450200228E+02  0.17770000000E+01 0. -1.
</event>
<event>
 8    1  0.1798472E-005  0.1887821E+03  0.7546771E-02  0.1063561E+00
        -11   -1    0    0    0    0  0.00000000000E+00  0.00000000000E+00  0.18250000000E+03  0.18250000000E+03  0.00000000000E+00 0. -1.
         11   -1    0    0    0    0 -0.00000000000E+00 -0.00000000000E+00 -0.18250000000E+03  0.18250000000E+03  0.00000000000E+00 0.  1.
         23    2    1    2    0    0  0.12603167376E+03  0.95799062257E+02 -0.49902136598E+02  0.18878213179E+03  0.89927898475E+02 0.  0.
         23    2    1    2    0    0 -0.12603167376E+03 -0.95799062257E+02  0.49902136598E+02  0.17621786821E+03  0.59169846369E+02 0.  0.
        -11    1    4    4    0    0 -0.10682415545E+03 -0.56028007571E+02  0.18523433770E+02  0.12203956498E+03  0.00000000000E+00 0. -1.
         11    1    4    4    0    0 -0.19207518310E+02 -0.39771054686E+02  0.31378702828E+02  0.54178303237E+02  0.00000000000E+00 0.  1.
        -15    1    3    3    0    0  0.75961502648E+02  0.93144361091E+01 -0.44814183084E+02  0.88703874431E+02  0.17770000000E+01 0. -1.
         15    1    3    3    0    0  0.50070171116E+02  0.86484626148E+02 -0.50879535133E+01  0.10007825736E+03  0.17770000000E+01 0.  1.
</event>
<event>
 8    1  0.1798472E-005  0.1835728E+03  0.7546771E-02  0.1067604E+00
        -11   -1    0    0    0    0  0.00000000000E+00  0.00000000000E+00  0.18250000000E+03  0.18250000000E+03  0.00000000000E+00 0.  1.
         11   -1    0    0    0    0 -0.00000000000E+00 -0.00000000000E+00 -0.18250000000E+03  0.18250000000E+03  0.00000000000E+00 0. -1.
         23    2    1    2    0    0 -0.55501310879E+01  0.87422072745E+01  0.15717463253E+03  0.18142716738E+03  0.90026228454E+02 0.  0.
         23    2    1    2    0    0  0.55501310879E+01 -0.87422072745E+01 -0.15717463253E+03  0.18357283262E+03  0.94275604579E+02 0.  0.
        -11    1    4    4    0    0  0.30475618467E+02  0.19536728753E+02 -0.13515044463E+03  0.13991458028E+03  0.00000000000E+00 0. -1.
         11    1    4    4    0    0 -0.24925487379E+02 -0.28278936028E+02 -0.22024187901E+02  0.43658252332E+02  0.00000000000E+00 0.  1.
        -15    1    3    3    0    0 -0.19338901973E+02  0.37785436947E+02  0.34890790644E+02  0.54975061397E+02  0.17770000000E+01 0. -1.
         15    1    3    3    0    0  0.13788770885E+02 -0.29043229672E+02  0.12228384189E+03  0.12645210599E+03  0.17770000000E+01 0.  1.
</event>
<event>
 8    1  0.1798472E-005  0.1835113E+03  0.7546771E-02  0.1067653E+00
        -11   -1    0    0    0    0  0.00000000000E+00  0.00000000000E+00  0.18250000000E+03  0.18250000000E+03  0.00000000000E+00 0. -1.
         11   -1    0    0    0    0 -0.00000000000E+00 -0.00000000000E+00 -0.18250000000E+03  0.18250000000E+03  0.00000000000E+00 0.  1.
         23    2    1    2    0    0  0.93106631567E+02 -0.12979079161E+02  0.12861086677E+03  0.18148874124E+03  0.86948874674E+02 0.  0.
         23    2    1    2    0    0 -0.93106631567E+02  0.12979079161E+02 -0.12861086677E+03  0.18351125876E+03  0.91095146424E+02 0.  0.
        -11    1    4    4    0    0 -0.86866637509E+02 -0.13251576032E+02 -0.12954157833E+03  0.15653254453E+03  0.00000000000E+00 0.  1.
         11    1    4    4    0    0 -0.62399940574E+01  0.26230655192E+02  0.93071155845E+00  0.26978714233E+02  0.00000000000E+00 0. -1.
        -15    1    3    3    0    0  0.34240329592E+02 -0.46701825933E+02  0.42517204223E+02  0.71863280610E+02  0.17770000000E+01 0.  1.
         15    1    3    3    0    0  0.58866301974E+02  0.33722746772E+02  0.86093662551E+02  0.10962546063E+03  0.17770000000E+01 0. -1.
</event>
<event>
 8    1  0.1798472E-005  0.1826913E+03  0.7546771E-02  0.1068303E+00
        -11   -1    0    0    0    0  0.00000000000E+00  0.00000000000E+00  0.18250000000E+03  0.18250000000E+03  0.00000000000E+00 0.  1.
         11   -1    0    0    0    0 -0.00000000000E+00 -0.00000000000E+00 -0.18250000000E+03  0.18250000000E+03  0.00000000000E+00 0. -1.
         23    2    1    2    0    0 -0.41591899980E+02  0.46126421526E+02 -0.14464939535E+03  0.18230871265E+03  0.91953717851E+02 0.  0.
         23    2    1    2    0    0  0.41591899980E+02 -0.46126421526E+02  0.14464939535E+03  0.18269128735E+03  0.92709902330E+02 0.  0.
        -11    1    4    4    0    0  0.68236410639E+02 -0.13668369654E+02  0.89287399928E+02  0.11320455756E+03  0.00000000000E+00 0.  1.
         11    1    4    4    0    0 -0.26644510658E+02 -0.32458051872E+02  0.55361995424E+02  0.69486729790E+02  0.00000000000E+00 0. -1.
        -15    1    3    3    0    0 -0.48469365951E+02 -0.12483932736E+02 -0.83070096591E+02  0.96999622106E+02  0.17770000000E+01 0. -1.
         15    1    3    3    0    0  0.68774659703E+01  0.58610354262E+02 -0.61579298761E+02  0.85309090546E+02  0.17770000000E+01 0.  1.
</event>
<event>
 8    1  0.1798472E-005  0.1836862E+03  0.7546771E-02  0.1067515E+00
        -11   -1    0    0    0    0  0.00000000000E+00  0.00000000000E+00  0.18250000000E+03  0.18250000000E+03  0.00000000000E+00 0.  1.
         11   -1    0    0    0    0 -0.00000000000E+00 -0.00000000000E+00 -0.18250000000E+03  0.18250000000E+03  0.00000000000E+00 0. -1.
         23    2    1    2    0    0  0.60236724929E+02 -0.14357922833E+03 -0.24636156085E+02  0.18131381921E+03  0.89578474041E+02 0.  0.
         23    2    1    2    0    0 -0.60236724929E+02  0.14357922833E+03  0.24636156085E+02  0.18368618079E+03  0.94287936607E+02 0.  0.
        -11    1    4    4    0    0 -0.18678839549E+02  0.39744658285E+02  0.52479974405E+02  0.68430144108E+02  0.00000000000E+00 0.  1.
         11    1    4    4    0    0 -0.41557885380E+02  0.10383457004E+03 -0.27843818320E+02  0.11525603668E+03  0.00000000000E+00 0. -1.
        -15    1    3    3    0    0 -0.23148865429E+02 -0.26130284128E+02 -0.10876288103E+02  0.36607555110E+02  0.17770000000E+01 0. -1.
         15    1    3    3    0    0  0.83385590358E+02 -0.11744894420E+03 -0.13759867982E+02  0.14470626410E+03  0.17770000000E+01 0.  1.
</event>
<event>
 8    1  0.1798472E-005  0.1827920E+03  0.7546771E-02  0.1068223E+00
        -11   -1    0    0    0    0  0.00000000000E+00  0.00000000000E+00  0.18250000000E+03  0.18250000000E+03  0.00000000000E+00 0.  1.
         11   -1    0    0    0    0 -0.00000000000E+00 -0.00000000000E+00 -0.18250000000E+03  0.18250000000E+03  0.00000000000E+00 0. -1.
         23    2    1    2    0    0  0.25195491266E+02 -0.21003975213E+02 -0.15501374765E+03  0.18220795223E+03  0.89969417814E+02 0.  0.
         23    2    1    2    0    0 -0.25195491266E+02  0.21003975213E+02  0.15501374765E+03  0.18279204777E+03  0.91146535943E+02 0.  0.
        -11    1    4    4    0    0 -0.35434204058E+02 -0.28098702747E+02  0.89553147035E+02  0.10032390571E+03  0.00000000000E+00 0.  1.
         11    1    4    4    0    0  0.10238712792E+02  0.49102677960E+02  0.65460600610E+02  0.82468142059E+02  0.00000000000E+00 0. -1.
        -15    1    3    3    0    0  0.65970144176E+01 -0.25394273109E+02 -0.16018672717E+03  0.16233094282E+03  0.17770000000E+01 0. -1.
         15    1    3    3    0    0  0.18598476849E+02  0.43902978961E+01  0.51729795297E+01  0.19877009406E+02  0.17770000000E+01 0.  1.
</event>
<event>
 8    1  0.1798472E-005  0.1842670E+03  0.7546771E-02  0.1067057E+00
        -11   -1    0    0    0    0  0.00000000000E+00  0.00000000000E+00  0.18250000000E+03  0.18250000000E+03  0.00000000000E+00 0.  1.
         11   -1    0    0    0    0 -0.00000000000E+00 -0.00000000000E+00 -0.18250000000E+03  0.18250000000E+03  0.00000000000E+00 0. -1.
         23    2    1    2    0    0 -0.44026558407E+02 -0.13657555063E+03  0.62185854909E+02  0.18073301938E+03  0.90587664003E+02 0.  0.
         23    2    1    2    0    0  0.44026558407E+02  0.13657555063E+03 -0.62185854909E+02  0.18426698062E+03  0.97447528047E+02 0.  0.
        -11    1    4    4    0    0 -0.30215302873E+02  0.32657329356E+02 -0.25975902245E+02  0.51519056531E+02  0.00000000000E+00 0.  1.
         11    1    4    4    0    0  0.74241861280E+02  0.10391822127E+03 -0.36209952663E+02  0.13274792409E+03  0.00000000000E+00 0. -1.
        -15    1    3    3    0    0  0.10285098844E+02 -0.91591477298E+01 -0.16387418115E+02  0.21479721759E+02  0.17770000000E+01 0. -1.
         15    1    3    3    0    0 -0.54311657251E+02 -0.12741640290E+03  0.78573273024E+02  0.15925329762E+03  0.17770000000E+01 0.  1.
</event>
<event>
 8    1  0.1798472E-005  0.1826812E+03  0.7546771E-02  0.1068311E+00
        -11   -1    0    0    0    0  0.00000000000E+00  0.00000000000E+00  0.18250000000E+03  0.18250000000E+03  0.00000000000E+00 0.  1.
         11   -1    0    0    0    0 -0.00000000000E+00 -0.00000000000E+00 -0.18250000000E+03  0.18250000000E+03  0.00000000000E+00 0. -1.
         23    2    1    2    0    0 -0.57987961942E+02  0.26528814886E+02 -0.14411260737E+03  0.18268123956E+03  0.92399187955E+02 0.  0.
         23    2    1    2    0    0  0.57987961942E+02 -0.26528814886E+02  0.14411260737E+03  0.18231876044E+03  0.91680450772E+02 0.  0.
        -11    1    4    4    0    0  0.21777411592E+02  0.17916698981E+02  0.10757844863E+01  0.28220933193E+02  0.00000000000E+00 0. -1.
         11    1    4    4    0    0  0.36210550349E+02 -0.44445513867E+02  0.14303682289E+03  0.15409782724E+03  0.00000000000E+00 0.  1.
        -15    1    3    3    0    0  0.46111938892E+01  0.50844706148E+01  0.11536572947E+02  0.13541240522E+02  0.17770000000E+01 0.  1.
         15    1    3    3    0    0 -0.62599155831E+02  0.21444344271E+02 -0.15564918032E+03  0.16913999904E+03  0.17770000000E+01 0. -1.
</event>
<event>
 8    1  0.1798472E-005  0.1830488E+03  0.7546771E-02  0.1068019E+00
        -11   -1    0    0    0    0  0.00000000000E+00  0.00000000000E+00  0.18250000000E+03  0.18250000000E+03  0.00000000000E+00 0. -1.
         11   -1    0    0    0    0 -0.00000000000E+00 -0.00000000000E+00 -0.18250000000E+03  0.18250000000E+03  0.00000000000E+00 0.  1.
         23    2    1    2    0    0  0.13787136526E+02 -0.51676441709E+02  0.14944434044E+03  0.18304879841E+03  0.91174074978E+02 0.  0.
         23    2    1    2    0    0 -0.13787136526E+02  0.51676441709E+02 -0.14944434044E+03  0.18195120159E+03  0.88949924722E+02 0.  0.
        -11    1    4    4    0    0 -0.29800722915E+02  0.65685035021E+02 -0.14224943914E+03  0.15949140995E+03  0.00000000000E+00 0.  1.
         11    1    4    4    0    0  0.16013586389E+02 -0.14008593312E+02 -0.71949012982E+01  0.22459791635E+02  0.00000000000E+00 0. -1.
        -15    1    3    3    0    0 -0.15382746038E+02 -0.16777815944E+02  0.13254063595E+03  0.13449275776E+03  0.17770000000E+01 0. -1.
         15    1    3    3    0    0  0.29169882564E+02 -0.34898625764E+02  0.16903704495E+02  0.48556040651E+02  0.17770000000E+01 0.  1.
</event>
<event>
 8    1  0.1798472E-005  0.1836837E+03  0.7546771E-02  0.1067516E+00
        -11   -1    0    0    0    0  0.00000000000E+00  0.00000000000E+00  0.18250000000E+03  0.18250000000E+03  0.00000000000E+00 0.  1.
         11   -1    0    0    0    0 -0.00000000000E+00 -0.00000000000E+00 -0.18250000000E+03  0.18250000000E+03  0.00000000000E+00 0. -1.
         23    2    1    2    0    0  0.42646925756E+02  0.24696730622E+02 -0.15129175647E+03  0.18368372529E+03  0.91770510412E+02 0.  0.
         23    2    1    2    0    0 -0.42646925756E+02 -0.24696730622E+02  0.15129175647E+03  0.18131627471E+03  0.86935074151E+02 0.  0.
        -11    1    4    4    0    0 -0.24264466035E+02  0.26339463066E+02  0.24452887791E+02  0.43364447972E+02  0.00000000000E+00 0. -1.
         11    1    4    4    0    0 -0.18382459721E+02 -0.51036193688E+02  0.12683886868E+03  0.13795182674E+03  0.00000000000E+00 0.  1.
        -15    1    3    3    0    0 -0.12973907111E+02  0.20817599124E+02 -0.24306531276E+01  0.24713569201E+02  0.17770000000E+01 0.  1.
         15    1    3    3    0    0  0.55620832867E+02  0.38791314979E+01 -0.14886110334E+03  0.15897015609E+03  0.17770000000E+01 0. -1.
</event>
<event>
 8    1  0.1798472E-005  0.1833445E+03  0.7546771E-02  0.1067785E+00
        -11   -1    0    0    0    0  0.00000000000E+00  0.00000000000E+00  0.18250000000E+03  0.18250000000E+03  0.00000000000E+00 0. -1.
         11   -1    0    0    0    0 -0.00000000000E+00 -0.00000000000E+00 -0.18250000000E+03  0.18250000000E+03  0.00000000000E+00 0.  1.
         23    2    1    2    0    0  0.16853786450E+02  0.54796697762E+01 -0.15721641668E+03  0.18334454047E+03  0.92650644624E+02 0.  0.
         23    2    1    2    0    0 -0.16853786450E+02 -0.54796697762E+01  0.15721641668E+03  0.18165545953E+03  0.89261567344E+02 0.  0.
        -11    1    4    4    0    0  0.19906271818E+02 -0.36612554014E+02  0.58663207080E+02  0.71959090003E+02  0.00000000000E+00 0.  1.
         11    1    4    4    0    0 -0.36760058268E+02  0.31132884238E+02  0.98553209598E+02  0.10969636953E+03  0.00000000000E+00 0. -1.
        -15    1    3    3    0    0 -0.33309651334E+02  0.12345113535E+02 -0.30423284268E+02  0.46804579422E+02  0.17770000000E+01 0. -1.
         15    1    3    3    0    0  0.50163437784E+02 -0.68654437585E+01 -0.12679313241E+03  0.13653996105E+03  0.17770000000E+01 0.  1.
</event>
<event>
 7    1  0.3875261E-005  0.3650000E+03  0.7546771E-02  0.9765871E-01
        -11   -1    0    0    0    0  0.00000000000E+00  0.00000000000E+00  0.18250000000E+03  0.18250000000E+03  0.00000000000E+00 0. -1.
         11   -1    0    0    0    0 -0.00000000000E+00 -0.00000000000E+00 -0.18250000000E+03  0.18250000000E+03  0.00000000000E+00 0.  1.
         23    2    1    2    0    0  0.37062445669E+00 -0.42149760402E+01 -0.13069068766E+03  0.15657646801E+03  0.86129153644E+02 0.  0.
        -11    1    3    3    0    0 -0.37125627566E+02  0.88501074620E+01 -0.30669192272E+02  0.48961576556E+02  0.00000000000E+00 0. -1.
         11    1    3    3    0    0  0.37496252022E+02 -0.13065083502E+02 -0.10002149539E+03  0.10761489145E+03  0.00000000000E+00 0.  1.
        -15    1    1    2    0    0 -0.30277502983E+02  0.67783819207E+02  0.11423042787E+03  0.13624654753E+03  0.17770000000E+01 0. -1.
         15    1    1    2    0    0  0.29906878527E+02 -0.63568843167E+02  0.16460259792E+02  0.72176984463E+02  0.17770000000E+01 0.  1.
</event>
<event>
 8    1  0.1798472E-005  0.1834211E+03  0.7546771E-02  0.1067724E+00
        -11   -1    0    0    0    0  0.00000000000E+00  0.00000000000E+00  0.18250000000E+03  0.18250000000E+03  0.00000000000E+00 0.  1.
         11   -1    0    0    0    0 -0.00000000000E+00 -0.00000000000E+00 -0.18250000000E+03  0.18250000000E+03  0.00000000000E+00 0. -1.
         23    2    1    2    0    0 -0.75844329568E+02  0.13642101873E+03 -0.15423913218E+02  0.18157887497E+03  0.91487343698E+02 0.  0.
         23    2    1    2    0    0  0.75844329568E+02 -0.13642101873E+03  0.15423913218E+02  0.18342112503E+03  0.95091299974E+02 0.  0.
        -11    1    4    4    0    0  0.62557728864E+02 -0.85062430527E+02  0.53260048659E+02  0.11826123334E+03  0.00000000000E+00 0.  1.
         11    1    4    4    0    0  0.13286600705E+02 -0.51358588201E+02 -0.37836135442E+02  0.65159891693E+02  0.00000000000E+00 0. -1.
        -15    1    3    3    0    0 -0.27221412975E+02  0.12298585205E+03  0.73791955423E+01  0.12619086887E+03  0.17770000000E+01 0. -1.
         15    1    3    3    0    0 -0.48622916593E+02  0.13435166675E+02 -0.22803108760E+02  0.55388006100E+02  0.17770000000E+01 0.  1.
</event>
<event>
 8    1  0.1798472E-005  0.1829933E+03  0.7546771E-02  0.1068063E+00
        -11   -1    0    0    0    0  0.00000000000E+00  0.00000000000E+00  0.18250000000E+03  0.18250000000E+03  0.00000000000E+00 0. -1.
         11   -1    0    0    0    0 -0.00000000000E+00 -0.00000000000E+00 -0.18250000000E+03  0.18250000000E+03  0.00000000000E+00 0.  1.
         23    2    1    2    0    0 -0.15825999311E+02 -0.31933163507E+02  0.15282360059E+03  0.18200667739E+03  0.92201890057E+02 0.  0.
         23    2    1    2    0    0  0.15825999311E+02  0.31933163507E+02 -0.15282360059E+03  0.18299332261E+03  0.94134552842E+02 0.  0.
        -11    1    4    4    0    0  0.48861681367E+02 -0.50998580212E+01 -0.93740873940E+02  0.10583394496E+03  0.00000000000E+00 0. -1.
         11    1    4    4    0    0 -0.33035682056E+02  0.37033021529E+02 -0.59082726649E+02  0.77159377659E+02  0.00000000000E+00 0.  1.
        -15    1    3    3    0    0 -0.11115474661E+02 -0.60398171121E+02  0.13426786803E+03  0.14765673356E+03  0.17770000000E+01 0. -1.
         15    1    3    3    0    0 -0.47105246504E+01  0.28465007614E+02  0.18555732560E+02  0.34349943825E+02  0.17770000000E+01 0.  1.
</event>
<event>
 8    1  0.1798472E-005  0.1834443E+03  0.7546771E-02  0.1067706E+00
        -11   -1    0    0    0    0  0.00000000000E+00  0.00000000000E+00  0.18250000000E+03  0.18250000000E+03  0.00000000000E+00 0.  1.
         11   -1    0    0    0    0 -0.00000000000E+00 -0.00000000000E+00 -0.18250000000E+03  0.18250000000E+03  0.00000000000E+00 0. -1.
         23    2    1    2    0    0 -0.19295858369E+01  0.38760216437E+01  0.15895842032E+03  0.18344426617E+03  0.91461863948E+02 0.  0.
         23    2    1    2    0    0  0.19295858369E+01 -0.38760216437E+01 -0.15895842032E+03  0.18155573383E+03  0.87612546199E+02 0.  0.
        -11    1    4    4    0    0 -0.22580277913E+02  0.34831337531E+02 -0.84186526891E+02  0.93864063063E+02  0.00000000000E+00 0.  1.
         11    1    4    4    0    0  0.24509863750E+02 -0.38707359175E+02 -0.74771893425E+02  0.87691670765E+02  0.00000000000E+00 0. -1.
        -15    1    3    3    0    0  0.28009854776E+02  0.31056651773E+02  0.12068417144E+03  0.12773760037E+03  0.17770000000E+01 0.  1.
         15    1    3    3    0    0 -0.29939440613E+02 -0.27180630130E+02  0.38274248878E+02  0.55706665801E+02  0.17770000000E+01 0. -1.
</event>
<event>
 8    1  0.1798472E-005  0.1827270E+03  0.7546771E-02  0.1068274E+00
        -11   -1    0    0    0    0  0.00000000000E+00  0.00000000000E+00  0.18250000000E+03  0.18250000000E+03  0.00000000000E+00 0.  1.
         11   -1    0    0    0    0 -0.00000000000E+00 -0.00000000000E+00 -0.18250000000E+03  0.18250000000E+03  0.00000000000E+00 0. -1.
         23    2    1    2    0    0  0.10665797780E+03  0.75488988245E+02  0.86188220122E+02  0.18272703884E+03  0.94266907570E+02 0.  0.
         23    2    1    2    0    0 -0.10665797780E+03 -0.75488988245E+02 -0.86188220122E+02  0.18227296116E+03  0.93383679018E+02 0.  0.
        -11    1    4    4    0    0 -0.25979214507E+02  0.42201662878E+01  0.14988441273E+02  0.30288327152E+02  0.00000000000E+00 0.  1.
         11    1    4    4    0    0 -0.80678763290E+02 -0.79709154533E+02 -0.10117666139E+03  0.15198463400E+03  0.00000000000E+00 0. -1.
        -15    1    3    3    0    0  0.74774193766E+02  0.17363371017E+02  0.36846744051E+01  0.76872630115E+02  0.17770000000E+01 0. -1.
         15    1    3    3    0    0  0.31883784031E+02  0.58125617229E+02  0.82503545717E+02  0.10585440873E+03  0.17770000000E+01 0.  1.
</event>
<event>
 8    1  0.1798472E-005  0.1826695E+03  0.7546771E-02  0.1068320E+00
        -11   -1    0    0    0    0  0.00000000000E+00  0.00000000000E+00  0.18250000000E+03  0.18250000000E+03  0.00000000000E+00 0. -1.
         11   -1    0    0    0    0 -0.00000000000E+00 -0.00000000000E+00 -0.18250000000E+03  0.18250000000E+03  0.00000000000E+00 0.  1.
         23    2    1    2    0    0 -0.56131881186E+01 -0.26001845620E+02  0.15674848892E+03  0.18266951782E+03  0.89946984957E+02 0.  0.
         23    2    1    2    0    0  0.56131881186E+01  0.26001845620E+02 -0.15674848892E+03  0.18233048218E+03  0.89256440092E+02 0.  0.
        -11    1    4    4    0    0 -0.31249451040E+02  0.27965233285E+02 -0.33502921375E+02  0.53675210327E+02  0.00000000000E+00 0. -1.
         11    1    4    4    0    0  0.36862639158E+02 -0.19633876653E+01 -0.12324556755E+03  0.12865527186E+03  0.00000000000E+00 0.  1.
        -15    1    3    3    0    0  0.28539932778E+02 -0.34392850600E+02  0.37618321255E+02  0.58443919773E+02  0.17770000000E+01 0.  1.
         15    1    3    3    0    0 -0.34153120897E+02  0.83910049802E+01  0.11913016767E+03  0.12422559804E+03  0.17770000000E+01 0. -1.
</event>
<event>
 8    1  0.1798472E-005  0.1826494E+03  0.7546771E-02  0.1068336E+00
        -11   -1    0    0    0    0  0.00000000000E+00  0.00000000000E+00  0.18250000000E+03  0.18250000000E+03  0.00000000000E+00 0.  1.
         11   -1    0    0    0    0 -0.00000000000E+00 -0.00000000000E+00 -0.18250000000E+03  0.18250000000E+03  0.00000000000E+00 0. -1.
         23    2    1    2    0    0  0.10099127243E+03 -0.40697597541E+02 -0.11428061135E+03  0.18264943563E+03  0.91897914308E+02 0.  0.
         23    2    1    2    0    0 -0.10099127243E+03  0.40697597541E+02  0.11428061135E+03  0.18235056437E+03  0.91302456933E+02 0.  0.
        -11    1    4    4    0    0 -0.55683747425E+02  0.59095981976E+02  0.10474105744E+03  0.13252812504E+03  0.00000000000E+00 0.  1.
         11    1    4    4    0    0 -0.45307525002E+02 -0.18398384434E+02  0.95395539111E+01  0.49822439327E+02  0.00000000000E+00 0. -1.
        -15    1    3    3    0    0  0.25814449358E+02 -0.57887453629E+02 -0.66641673868E+02  0.91987029022E+02  0.17770000000E+01 0. -1.
         15    1    3    3    0    0  0.75176823069E+02  0.17189856087E+02 -0.47638937483E+02  0.90662406611E+02  0.17770000000E+01 0.  1.
</event>
<event>
 8    1  0.1798472E-005  0.1826829E+03  0.7546771E-02  0.1068309E+00
        -11   -1    0    0    0    0  0.00000000000E+00  0.00000000000E+00  0.18250000000E+03  0.18250000000E+03  0.00000000000E+00 0.  1.
         11   -1    0    0    0    0 -0.00000000000E+00 -0.00000000000E+00 -0.18250000000E+03  0.18250000000E+03  0.00000000000E+00 0. -1.
         23    2    1    2    0    0 -0.16796587201E+02 -0.13784661988E+03 -0.75730351103E+02  0.18231707159E+03  0.90667593782E+02 0.  0.
         23    2    1    2    0    0  0.16796587201E+02  0.13784661988E+03  0.75730351103E+02  0.18268292841E+03  0.91401041017E+02 0.  0.
        -11    1    4    4    0    0  0.30728010615E+02  0.94843676985E+02  0.90986712043E+02  0.13497449933E+03  0.00000000000E+00 0.  1.
         11    1    4    4    0    0 -0.13931423413E+02  0.43002942896E+02 -0.15256360941E+02  0.47708429079E+02  0.00000000000E+00 0. -1.
        -15    1    3    3    0    0 -0.30830963170E+02 -0.14598814235E+03 -0.64852578726E+02  0.16270249136E+03  0.17770000000E+01 0. -1.
         15    1    3    3    0    0  0.14034375969E+02  0.81415224710E+01 -0.10877772377E+02  0.19614580237E+02  0.17770000000E+01 0.  1.
</event>
<event>
 8    1  0.1798472E-005  0.1830346E+03  0.7546771E-02  0.1068030E+00
        -11   -1    0    0    0    0  0.00000000000E+00  0.00000000000E+00  0.18250000000E+03  0.18250000000E+03  0.00000000000E+00 0.  1.
         11   -1    0    0    0    0 -0.00000000000E+00 -0.00000000000E+00 -0.18250000000E+03  0.18250000000E+03  0.00000000000E+00 0. -1.
         23    2    1    2    0    0 -0.12437898022E+02  0.85576594813E+01 -0.15606432484E+03  0.18303456973E+03  0.94433285357E+02 0.  0.
         23    2    1    2    0    0  0.12437898022E+02 -0.85576594813E+01  0.15606432484E+03  0.18196543027E+03  0.92343973725E+02 0.  0.
        -11    1    4    4    0    0  0.38106672619E+02 -0.34228057199E+02  0.12143260936E+03  0.13179361522E+03  0.00000000000E+00 0.  1.
         11    1    4    4    0    0 -0.25668774597E+02  0.25670397717E+02  0.34631715484E+02  0.50171815052E+02  0.00000000000E+00 0. -1.
        -15    1    3    3    0    0  0.27027191137E+02  0.31313673803E+02 -0.36947997929E+02  0.55491688637E+02  0.17770000000E+01 0.  1.
         15    1    3    3    0    0 -0.39465089159E+02 -0.22756014322E+02 -0.11911632691E+03  0.12754288109E+03  0.17770000000E+01 0. -1.
</event>
<event>
 8    1  0.1798472E-005  0.1828718E+03  0.7546771E-02  0.1068159E+00
        -11   -1    0    0    0    0  0.00000000000E+00  0.00000000000E+00  0.18250000000E+03  0.18250000000E+03  0.00000000000E+00 0. -1.
         11   -1    0    0    0    0 -0.00000000000E+00 -0.00000000000E+00 -0.18250000000E+03  0.18250000000E+03  0.00000000000E+00 0.  1.
         23    2    1    2    0    0  0.35454246201E+02  0.45338695351E+02 -0.14752195339E+03  0.18212818333E+03  0.89974149404E+02 0.  0.
         23    2    1    2    0    0 -0.35454246201E+02 -0.45338695351E+02  0.14752195339E+03  0.18287181667E+03  0.91470070142E+02 0.  0.
        -11    1    4    4    0    0 -0.24771710147E+02  0.25254499537E+00 -0.32596319298E+01  0.24986528428E+02  0.00000000000E+00 0.  1.
         11    1    4    4    0    0 -0.10682536054E+02 -0.45591240346E+02  0.15078158532E+03  0.15788528824E+03  0.00000000000E+00 0. -1.
        -15    1    3    3    0    0  0.55476361541E+02  0.34465021169E+02 -0.14511970893E+03  0.15914883607E+03  0.17770000000E+01 0.  1.
         15    1    3    3    0    0 -0.20022115340E+02  0.10873674183E+02 -0.24022444595E+01  0.22979347257E+02  0.17770000000E+01 0. -1.
</event>
<event>
 8    1  0.1798472E-005  0.1829992E+03  0.7546771E-02  0.1068058E+00
        -11   -1    0    0    0    0  0.00000000000E+00  0.00000000000E+00  0.18250000000E+03  0.18250000000E+03  0.00000000000E+00 0.  1.
         11   -1    0    0    0    0 -0.00000000000E+00 -0.00000000000E+00 -0.18250000000E+03  0.18250000000E+03  0.00000000000E+00 0. -1.
         23    2    1    2    0    0  0.41916982695E+01 -0.15303108573E+02 -0.15800402036E+03  0.18299918856E+03  0.90948760822E+02 0.  0.
         23    2    1    2    0    0 -0.41916982695E+01  0.15303108573E+02  0.15800402036E+03  0.18200081144E+03  0.88922828619E+02 0.  0.
        -11    1    4    4    0    0 -0.11756654956E+02  0.29566753073E+02  0.16222227823E+03  0.16531327647E+03  0.00000000000E+00 0.  1.
         11    1    4    4    0    0  0.75649566863E+01 -0.14263644500E+02 -0.42182578686E+01  0.16687534975E+02  0.00000000000E+00 0. -1.
        -15    1    3    3    0    0  0.27288434611E+02 -0.14372845889E+02 -0.89649966631E+01  0.32167782899E+02  0.17770000000E+01 0.  1.
         15    1    3    3    0    0 -0.23096736341E+02 -0.93026268427E+00 -0.14903902370E+03  0.15083140566E+03  0.17770000000E+01 0. -1.
</event>
<event>
 8    1  0.1798472E-005  0.1832793E+03  0.7546771E-02  0.1067836E+00
        -11   -1    0    0    0    0  0.00000000000E+00  0.00000000000E+00  0.18250000000E+03  0.18250000000E+03  0.00000000000E+00 0.  1.
         11   -1    0    0    0    0 -0.00000000000E+00 -0.00000000000E+00 -0.18250000000E+03  0.18250000000E+03  0.00000000000E+00 0. -1.
         23    2    1    2    0    0 -0.46464171864E+02  0.11353822364E+03  0.98606403905E+02  0.18327925385E+03  0.93905348645E+02 0.  0.
         23    2    1    2    0    0  0.46464171864E+02 -0.11353822364E+03 -0.98606403905E+02  0.18172074615E+03  0.90825983045E+02 0.  0.
        -11    1    4    4    0    0 -0.13975418733E+01 -0.50691969033E+02  0.55301150823E+01  0.51011871369E+02  0.00000000000E+00 0.  1.
         11    1    4    4    0    0  0.47861713737E+02 -0.62846254611E+02 -0.10413651899E+03  0.13070887478E+03  0.00000000000E+00 0. -1.
        -15    1    3    3    0    0 -0.67962051906E+02  0.10416875919E+03  0.60076286194E+02  0.13813865781E+03  0.17770000000E+01 0.  1.
         15    1    3    3    0    0  0.21497880042E+02  0.93694644535E+01  0.38530117711E+02  0.45140596033E+02  0.17770000000E+01 0. -1.
</event>
<event>
 8    1  0.1798472E-005  0.1834914E+03  0.7546771E-02  0.1067668E+00
        -11   -1    0    0    0    0  0.00000000000E+00  0.00000000000E+00  0.18250000000E+03  0.18250000000E+03  0.00000000000E+00 0.  1.
         11   -1    0    0    0    0 -0.00000000000E+00 -0.00000000000E+00 -0.18250000000E+03  0.18250000000E+03  0.00000000000E+00 0. -1.
         23    2    1    2    0    0  0.45230247330E+02  0.79782247058E+02  0.12760648701E+03  0.18150862672E+03  0.90834926254E+02 0.  0.
         23    2    1    2    0    0 -0.45230247330E+02 -0.79782247058E+02 -0.12760648701E+03  0.18349137328E+03  0.94734821063E+02 0.  0.
        -11    1    4    4    0    0 -0.42905220713E+02 -0.18235999784E+02 -0.10994223983E+03  0.11941819691E+03  0.00000000000E+00 0. -1.
         11    1    4    4    0    0 -0.23250266165E+01 -0.61546247274E+02 -0.17664247176E+02  0.64073176373E+02  0.00000000000E+00 0.  1.
        -15    1    3    3    0    0  0.49592036197E+02  0.50870849282E+02  0.25852487500E+02  0.75622233501E+02  0.17770000000E+01 0.  1.
         15    1    3    3    0    0 -0.43617888669E+01  0.28911397776E+02  0.10175399951E+03  0.10588639322E+03  0.17770000000E+01 0. -1.
</event>
<event>
 8    1  0.1798472E-005  0.1829512E+03  0.7546771E-02  0.1068096E+00
        -11   -1    0    0    0    0  0.00000000000E+00  0.00000000000E+00  0.18250000000E+03  0.18250000000E+03  0.00000000000E+00 0. -1.
         11   -1    0    0    0    0 -0.00000000000E+00 -0.00000000000E+00 -0.18250000000E+03  0.18250000000E+03  0.00000000000E+00 0.  1.
         23    2    1    2    0    0  0.61386338977E+01  0.78222652017E+01 -0.15711007225E+03  0.18295124096E+03  0.93213256070E+02 0.  0.
         23    2    1    2    0    0 -0.61386338977E+01 -0.78222652017E+01  0.15711007225E+03  0.18204875904E+03  0.91429236057E+02 0.  0.
        -11    1    4    4    0    0  0.37379803980E+02 -0.24255650315E+02  0.89532698313E+02  0.10000845157E+03  0.00000000000E+00 0.  1.
         11    1    4    4    0    0 -0.43518437878E+02  0.16433385114E+02  0.67577373938E+02  0.82040307472E+02  0.00000000000E+00 0. -1.
        -15    1    3    3    0    0 -0.30729462983E+02 -0.58877027490E+01 -0.13644288170E+02  0.34180246745E+02  0.17770000000E+01 0. -1.
         15    1    3    3    0    0  0.36868096881E+02  0.13709967951E+02 -0.14346578408E+03  0.14877099422E+03  0.17770000000E+01 0.  1.
</event>
<event>
 8    1  0.1798472E-005  0.1828783E+03  0.7546771E-02  0.1068154E+00
        -11   -1    0    0    0    0  0.00000000000E+00  0.00000000000E+00  0.18250000000E+03  0.18250000000E+03  0.00000000000E+00 0. -1.
         11   -1    0    0    0    0 -0.00000000000E+00 -0.00000000000E+00 -0.18250000000E+03  0.18250000000E+03  0.00000000000E+00 0.  1.
         23    2    1    2    0    0  0.12152589100E+03  0.52853445702E+02  0.83999302954E+02  0.18212165839E+03  0.92468300789E+02 0.  0.
         23    2    1    2    0    0 -0.12152589100E+03 -0.52853445702E+02 -0.83999302954E+02  0.18287834161E+03  0.93949859115E+02 0.  0.
        -11    1    4    4    0    0 -0.68714037458E+02 -0.45952911316E+02  0.88481806054E+00  0.82668445644E+02  0.00000000000E+00 0. -1.
         11    1    4    4    0    0 -0.52811853543E+02 -0.69005343861E+01 -0.84884121015E+02  0.10020989597E+03  0.00000000000E+00 0.  1.
        -15    1    3    3    0    0  0.12602258958E+03  0.50347018764E+02  0.45357241230E+02  0.14309770244E+03  0.17770000000E+01 0. -1.
         15    1    3    3    0    0 -0.44966985823E+01  0.25064269376E+01  0.38642061725E+02  0.39023955943E+02  0.17770000000E+01 0.  1.
</event>
<event>
 8    1  0.1798472E-005  0.1827733E+03  0.7546771E-02  0.1068238E+00
        -11   -1    0    0    0    0  0.00000000000E+00  0.00000000000E+00  0.18250000000E+03  0.18250000000E+03  0.00000000000E+00 0. -1.
         11   -1    0    0    0    0 -0.00000000000E+00 -0.00000000000E+00 -0.18250000000E+03  0.18250000000E+03  0.00000000000E+00 0.  1.
         23    2    1    2    0    0  0.11829591603E+03 -0.65591425145E+02 -0.82092793499E+02  0.18222674146E+03  0.90394688756E+02 0.  0.
         23    2    1    2    0    0 -0.11829591603E+03  0.65591425145E+02  0.82092793499E+02  0.18277325854E+03  0.91491412126E+02 0.  0.
        -11    1    4    4    0    0 -0.16468091353E+02 -0.10987442820E+02  0.46417908992E+02  0.50463295648E+02  0.00000000000E+00 0. -1.
         11    1    4    4    0    0 -0.10182782468E+03  0.76578867965E+02  0.35674884507E+02  0.13230996290E+03  0.00000000000E+00 0.  1.
        -15    1    3    3    0    0  0.10743765465E+03 -0.26113913887E+02 -0.27473099301E+02  0.11394171778E+03  0.17770000000E+01 0.  1.
         15    1    3    3    0    0  0.10858261374E+02 -0.39477511258E+02 -0.54619694198E+02  0.68285023676E+02  0.17770000000E+01 0. -1.
</event>
<event>
 8    1  0.1798472E-005  0.1827266E+03  0.7546771E-02  0.1068275E+00
        -11   -1    0    0    0    0  0.00000000000E+00  0.00000000000E+00  0.18250000000E+03  0.18250000000E+03  0.00000000000E+00 0.  1.
         11   -1    0    0    0    0 -0.00000000000E+00 -0.00000000000E+00 -0.18250000000E+03  0.18250000000E+03  0.00000000000E+00 0. -1.
         23    2    1    2    0    0  0.22182880831E+02 -0.77405535832E+02  0.13612685682E+03  0.18227339722E+03  0.90605590369E+02 0.  0.
         23    2    1    2    0    0 -0.22182880831E+02  0.77405535832E+02 -0.13612685682E+03  0.18272660278E+03  0.91513895313E+02 0.  0.
        -11    1    4    4    0    0  0.19865169619E+01 -0.65891393673E+01 -0.76760799650E+02  0.77068692542E+02  0.00000000000E+00 0.  1.
         11    1    4    4    0    0 -0.24169397792E+02  0.83994675199E+02 -0.59366057174E+02  0.10565791024E+03  0.00000000000E+00 0. -1.
        -15    1    3    3    0    0  0.10130941849E+02 -0.64200620484E+02  0.14737246235E+03  0.16107810540E+03  0.17770000000E+01 0.  1.
         15    1    3    3    0    0  0.12051938982E+02 -0.13204915348E+02 -0.11245605524E+02  0.21195291816E+02  0.17770000000E+01 0. -1.
</event>
<event>
 8    1  0.1798472E-005  0.1847271E+03  0.7546771E-02  0.1066696E+00
        -11   -1    0    0    0    0  0.00000000000E+00  0.00000000000E+00  0.18250000000E+03  0.18250000000E+03  0.00000000000E+00 0. -1.
         11   -1    0    0    0    0 -0.00000000000E+00 -0.00000000000E+00 -0.18250000000E+03  0.18250000000E+03  0.00000000000E+00 0.  1.
         23    2    1    2    0    0 -0.67581153959E+01  0.11132529385E+03 -0.10808844827E+03  0.18472708313E+03  0.10000994660E+03 0.  0.
         23    2    1    2    0    0  0.67581153959E+01 -0.11132529385E+03  0.10808844827E+03  0.18027291687E+03  0.91521684497E+02 0.  0.
        -11    1    4    4    0    0 -0.10576167057E+01  0.92643634165E+01 -0.83089414728E+01  0.12489415159E+02  0.00000000000E+00 0.  1.
         11    1    4    4    0    0  0.78157321016E+01 -0.12058965727E+03  0.11639738974E+03  0.16778350171E+03  0.00000000000E+00 0. -1.
        -15    1    3    3    0    0 -0.43567922574E+02  0.16230878299E+02 -0.22970861359E+02  0.51888567993E+02  0.17770000000E+01 0. -1.
         15    1    3    3    0    0  0.36809807179E+02  0.95094415553E+02 -0.85117586907E+02  0.13283851514E+03  0.17770000000E+01 0.  1.
</event>
<event>
 8    1  0.1798472E-005  0.1837741E+03  0.7546771E-02  0.1067445E+00
        -11   -1    0    0    0    0  0.00000000000E+00  0.00000000000E+00  0.18250000000E+03  0.18250000000E+03  0.00000000000E+00 0.  1.
         11   -1    0    0    0    0 -0.00000000000E+00 -0.00000000000E+00 -0.18250000000E+03  0.18250000000E+03  0.00000000000E+00 0.  1.
         23    2    1    2    0    0  0.88046811217E+02  0.16929905465E+02 -0.13289014031E+03  0.18377410124E+03  0.89856932008E+02 0.  0.
         23    2    1    2    0    0 -0.88046811217E+02 -0.16929905465E+02  0.13289014031E+03  0.18122589876E+03  0.84523217669E+02 0.  0.
        -11    1    4    4    0    0 -0.23767395318E+02 -0.77283911567E+01 -0.78764759452E+01  0.26204121496E+02  0.00000000000E+00 0.  1.
         11    1    4    4    0    0 -0.64279415898E+02 -0.92015143079E+01  0.14076661626E+03  0.15502177726E+03  0.00000000000E+00 0.  1.
        -15    1    3    3    0    0  0.30175645694E+02 -0.11446545314E+02 -0.11111096318E+03  0.11571688235E+03  0.17770000000E+01 0.  1.
         15    1    3    3    0    0  0.57871165522E+02  0.28376450779E+02 -0.21779177133E+02  0.68057218892E+02  0.17770000000E+01 0. -1.
</event>
<event>
 8    1  0.1798472E-005  0.1825529E+03  0.7546771E-02  0.1068413E+00
        -11   -1    0    0    0    0  0.00000000000E+00  0.00000000000E+00  0.18250000000E+03  0.18250000000E+03  0.00000000000E+00 0.  1.
         11   -1    0    0    0    0 -0.00000000000E+00 -0.00000000000E+00 -0.18250000000E+03  0.18250000000E+03  0.00000000000E+00 0. -1.
         23    2    1    2    0    0 -0.56511332065E+00 -0.82792130392E+02 -0.13448094463E+03  0.18255292760E+03  0.91572870981E+02 0.  0.
         23    2    1    2    0    0  0.56511332065E+00  0.82792130392E+02  0.13448094463E+03  0.18244707240E+03  0.91361663463E+02 0.  0.
        -11    1    4    4    0    0  0.44241616467E+02  0.46275460926E+02  0.88706143011E+02  0.10939615496E+03  0.00000000000E+00 0. -1.
         11    1    4    4    0    0 -0.43676503146E+02  0.36516669466E+02  0.45774801617E+02  0.73050917442E+02  0.00000000000E+00 0.  1.
        -15    1    3    3    0    0 -0.10934883437E+02 -0.10049969995E+03 -0.98874114936E+02  0.14141785495E+03  0.17770000000E+01 0. -1.
         15    1    3    3    0    0  0.10369770116E+02  0.17707569560E+02 -0.35606829692E+02  0.41135072648E+02  0.17770000000E+01 0.  1.
</event>
<event>
 8    1  0.1798472E-005  0.1827548E+03  0.7546771E-02  0.1068252E+00
        -11   -1    0    0    0    0  0.00000000000E+00  0.00000000000E+00  0.18250000000E+03  0.18250000000E+03  0.00000000000E+00 0.  1.
         11   -1    0    0    0    0 -0.00000000000E+00 -0.00000000000E+00 -0.18250000000E+03  0.18250000000E+03  0.00000000000E+00 0. -1.
         23    2    1    2    0    0  0.63516685956E+01  0.26891943123E+02  0.15562417054E+03  0.18275483038E+03  0.91743802367E+02 0.  0.
         23    2    1    2    0    0 -0.63516685956E+01 -0.26891943123E+02 -0.15562417054E+03  0.18224516962E+03  0.90724302661E+02 0.  0.
        -11    1    4    4    0    0  0.30624088975E+02 -0.40627509854E+02 -0.11433135837E+03  0.12514027685E+03  0.00000000000E+00 0. -1.
         11    1    4    4    0    0 -0.36975757571E+02  0.13735566731E+02 -0.41292812170E+02  0.57104892770E+02  0.00000000000E+00 0.  1.
        -15    1    3    3    0    0 -0.12307439086E+02  0.56226809949E+02  0.11914117144E+03  0.13232801545E+03  0.17770000000E+01 0.  1.
         15    1    3    3    0    0  0.18659107682E+02 -0.29334866825E+02  0.36482999106E+02  0.50426814929E+02  0.17770000000E+01 0. -1.
</event>
<event>
 8    1  0.1798472E-005  0.1904091E+03  0.7546771E-02  0.1062328E+00
        -11   -1    0    0    0    0  0.00000000000E+00  0.00000000000E+00  0.18250000000E+03  0.18250000000E+03  0.00000000000E+00 0. -1.
         11   -1    0    0    0    0 -0.00000000000E+00 -0.00000000000E+00 -0.18250000000E+03  0.18250000000E+03  0.00000000000E+00 0.  1.
         23    2    1    2    0    0  0.62931940130E+02 -0.13626871444E+02  0.13557639996E+03  0.19040906259E+03  0.11716881060E+03 0.  0.
         23    2    1    2    0    0 -0.62931940130E+02  0.13626871444E+02 -0.13557639996E+03  0.17459093741E+03  0.89190327313E+02 0.  0.
        -11    1    4    4    0    0 -0.84539108161E+02  0.98557467357E+01 -0.12213713622E+03  0.14886731205E+03  0.00000000000E+00 0.  1.
         11    1    4    4    0    0  0.21607168031E+02  0.37711247085E+01 -0.13439263733E+02  0.25723625358E+02  0.00000000000E+00 0. -1.
        -15    1    3    3    0    0  0.94580925112E+02 -0.27862846778E+02  0.94202731317E+02  0.13637889112E+03  0.17770000000E+01 0. -1.
         15    1    3    3    0    0 -0.31648984982E+02  0.14235975334E+02  0.41373668638E+02  0.54030171476E+02  0.17770000000E+01 0.  1.
</event>
<event>
 8    1  0.1798472E-005  0.1838262E+03  0.7546771E-02  0.1067404E+00
        -11   -1    0    0    0    0  0.00000000000E+00  0.00000000000E+00  0.18250000000E+03  0.18250000000E+03  0.00000000000E+00 0.  1.
         11   -1    0    0    0    0 -0.00000000000E+00 -0.00000000000E+00 -0.18250000000E+03  0.18250000000E+03  0.00000000000E+00 0. -1.
         23    2    1    2    0    0 -0.85950711435E+02 -0.36192669832E+02 -0.12821112362E+03  0.18117375172E+03  0.87683532930E+02 0.  0.
         23    2    1    2    0    0  0.85950711435E+02  0.36192669832E+02  0.12821112362E+03  0.18382624828E+03  0.93040653431E+02 0.  0.
        -11    1    4    4    0    0  0.30207118961E+02  0.10780298330E+02  0.11729177949E+03  0.12159788816E+03  0.00000000000E+00 0.  1.
         11    1    4    4    0    0  0.55743592474E+02  0.25412371502E+02  0.10919344127E+02  0.62228360121E+02  0.00000000000E+00 0. -1.
        -15    1    3    3    0    0 -0.51106758651E+02  0.13121754245E+02 -0.10294737933E+03  0.11569529746E+03  0.17770000000E+01 0.  1.
         15    1    3    3    0    0 -0.34843952785E+02 -0.49314424078E+02 -0.25263744286E+02  0.65478454259E+02  0.17770000000E+01 0. -1.
</event>
<event>
 8    1  0.1798472E-005  0.1832185E+03  0.7546771E-02  0.1067884E+00
        -11   -1    0    0    0    0  0.00000000000E+00  0.00000000000E+00  0.18250000000E+03  0.18250000000E+03  0.00000000000E+00 0.  1.
         11   -1    0    0    0    0 -0.00000000000E+00 -0.00000000000E+00 -0.18250000000E+03  0.18250000000E+03  0.00000000000E+00 0. -1.
         23    2    1    2    0    0 -0.11391723812E+03  0.44895151286E+02  0.10082223320E+03  0.18178153532E+03  0.88807049989E+02 0.  0.
         23    2    1    2    0    0  0.11391723812E+03 -0.44895151286E+02 -0.10082223320E+03  0.18321846468E+03  0.91712438317E+02 0.  0.
        -11    1    4    4    0    0  0.11609920711E+02 -0.31254288392E+02  0.68820284651E+01  0.34043841111E+02  0.00000000000E+00 0.  1.
         11    1    4    4    0    0  0.10230731741E+03 -0.13640862894E+02 -0.10770426166E+03  0.14917462357E+03  0.00000000000E+00 0. -1.
        -15    1    3    3    0    0 -0.56899382553E+02 -0.18931771982E+02  0.66475826703E+02  0.89544095227E+02  0.17770000000E+01 0.  1.
         15    1    3    3    0    0 -0.57017855566E+02  0.63826923268E+02  0.34346406496E+02  0.92237440096E+02  0.17770000000E+01 0. -1.
</event>
<event>
 8    1  0.1798472E-005  0.1827695E+03  0.7546771E-02  0.1068241E+00
        -11   -1    0    0    0    0  0.00000000000E+00  0.00000000000E+00  0.18250000000E+03  0.18250000000E+03  0.00000000000E+00 0.  1.
         11   -1    0    0    0    0 -0.00000000000E+00 -0.00000000000E+00 -0.18250000000E+03  0.18250000000E+03  0.00000000000E+00 0.  1.
         23    2    1    2    0    0  0.44163857149E+02  0.64637608004E+02  0.13697400634E+03  0.18276946773E+03  0.92273144928E+02 0.  0.
         23    2    1    2    0    0 -0.44163857149E+02 -0.64637608004E+02 -0.13697400634E+03  0.18223053227E+03  0.91200996877E+02 0.  0.
        -11    1    4    4    0    0 -0.38338142279E+02 -0.37409937688E+00 -0.97222316202E+01  0.39553443484E+02  0.00000000000E+00 0.  1.
         11    1    4    4    0    0 -0.58257148702E+01 -0.64263508627E+02 -0.12725177472E+03  0.14267708879E+03  0.00000000000E+00 0.  1.
        -15    1    3    3    0    0 -0.11257696914E+02  0.63686501118E+02  0.62892598998E+02  0.90229390456E+02  0.17770000000E+01 0. -1.
         15    1    3    3    0    0  0.55421554063E+02  0.95110688580E+00  0.74081407343E+02  0.92540077274E+02  0.17770000000E+01 0.  1.
</event>
<event>
 8    1  0.1798472E-005  0.1829717E+03  0.7546771E-02  0.1068080E+00
        -11   -1    0    0    0    0  0.00000000000E+00  0.00000000000E+00  0.18250000000E+03  0.18250000000E+03  0.00000000000E+00 0.  1.
         11   -1    0    0    0    0 -0.00000000000E+00 -0.00000000000E+00 -0.18250000000E+03  0.18250000000E+03  0.00000000000E+00 0. -1.
         23    2    1    2    0    0 -0.15622539228E+02 -0.27762866006E+02 -0.15492034162E+03  0.18297173763E+03  0.91997304651E+02 0.  0.
         23    2    1    2    0    0  0.15622539228E+02  0.27762866006E+02  0.15492034162E+03  0.18202826237E+03  0.90106246137E+02 0.  0.
        -11    1    4    4    0    0 -0.85587260554E+01  0.56341194574E+02  0.10688474213E+03  0.12112774289E+03  0.00000000000E+00 0.  1.
         11    1    4    4    0    0  0.24181265283E+02 -0.28578328568E+02  0.48035599492E+02  0.60900519481E+02  0.00000000000E+00 0. -1.
        -15    1    3    3    0    0 -0.38851362491E+02 -0.17982976313E+02 -0.22955610734E+02  0.48610015405E+02  0.17770000000E+01 0.  1.
         15    1    3    3    0    0  0.23228823263E+02 -0.97798896926E+01 -0.13196473089E+03  0.13436172223E+03  0.17770000000E+01 0. -1.
</event>
<event>
 8    1  0.1798472E-005  0.1827490E+03  0.7546771E-02  0.1068257E+00
        -11   -1    0    0    0    0  0.00000000000E+00  0.00000000000E+00  0.18250000000E+03  0.18250000000E+03  0.00000000000E+00 0.  1.
         11   -1    0    0    0    0 -0.00000000000E+00 -0.00000000000E+00 -0.18250000000E+03  0.18250000000E+03  0.00000000000E+00 0. -1.
         23    2    1    2    0    0 -0.50077586875E+02 -0.54940469789E+02 -0.14114043690E+03  0.18225101971E+03  0.88139612710E+02 0.  0.
         23    2    1    2    0    0  0.50077586875E+02  0.54940469789E+02  0.14114043690E+03  0.18274898029E+03  0.89164718026E+02 0.  0.
        -11    1    4    4    0    0  0.70553099939E+02  0.59135382528E+02  0.96010300956E+02  0.13301395140E+03  0.00000000000E+00 0.  1.
         11    1    4    4    0    0 -0.20475513064E+02 -0.41949127397E+01  0.45130135945E+02  0.49735028889E+02  0.00000000000E+00 0. -1.
        -15    1    3    3    0    0 -0.70022266016E+02 -0.28082645618E+02 -0.67089725133E+02  0.10097495566E+03  0.17770000000E+01 0.  1.
         15    1    3    3    0    0  0.19944679141E+02 -0.26857824170E+02 -0.74050711768E+02  0.81276064050E+02  0.17770000000E+01 0. -1.
</event>
<event>
 8    1  0.1798472E-005  0.1826123E+03  0.7546771E-02  0.1068365E+00
        -11   -1    0    0    0    0  0.00000000000E+00  0.00000000000E+00  0.18250000000E+03  0.18250000000E+03  0.00000000000E+00 0. -1.
         11   -1    0    0    0    0 -0.00000000000E+00 -0.00000000000E+00 -0.18250000000E+03  0.18250000000E+03  0.00000000000E+00 0.  1.
         23    2    1    2    0    0  0.19035399125E+02  0.54605447389E+02 -0.14648338358E+03  0.18238767292E+03  0.91998805772E+02 0.  0.
         23    2    1    2    0    0 -0.19035399125E+02 -0.54605447389E+02  0.14648338358E+03  0.18261232708E+03  0.92443382855E+02 0.  0.
        -11    1    4    4    0    0 -0.20477937922E+02  0.17779025247E+02  0.79431457605E+02  0.83933283848E+02  0.00000000000E+00 0.  1.
         11    1    4    4    0    0  0.14425387978E+01 -0.72384472636E+02  0.67051925973E+02  0.98679043234E+02  0.00000000000E+00 0. -1.
        -15    1    3    3    0    0  0.13186513494E+02  0.75197424603E+02 -0.14078782964E+03  0.16016525063E+03  0.17770000000E+01 0.  1.
         15    1    3    3    0    0  0.58488856310E+01 -0.20591977214E+02 -0.56955539365E+01  0.22222422288E+02  0.17770000000E+01 0. -1.
</event>
<event>
 8    1  0.1798472E-005  0.1827666E+03  0.7546771E-02  0.1068243E+00
        -11   -1    0    0    0    0  0.00000000000E+00  0.00000000000E+00  0.18250000000E+03  0.18250000000E+03  0.00000000000E+00 0. -1.
         11   -1    0    0    0    0 -0.00000000000E+00 -0.00000000000E+00 -0.18250000000E+03  0.18250000000E+03  0.00000000000E+00 0.  1.
         23    2    1    2    0    0  0.20793890137E+02 -0.28968227407E+02 -0.15351962851E+03  0.18276659261E+03  0.92540839473E+02 0.  0.
         23    2    1    2    0    0 -0.20793890137E+02  0.28968227407E+02  0.15351962851E+03  0.18223340739E+03  0.91483301024E+02 0.  0.
        -11    1    4    4    0    0 -0.20569964071E+02  0.39316700178E+02  0.16254965829E+03  0.16849723364E+03  0.00000000000E+00 0. -1.
         11    1    4    4    0    0 -0.22392606542E+00 -0.10348472771E+02 -0.90300297784E+01  0.13736173753E+02  0.00000000000E+00 0.  1.
        -15    1    3    3    0    0  0.48784760490E+02 -0.96989833921E+01 -0.38804459255E+02  0.63110751239E+02  0.17770000000E+01 0. -1.
         15    1    3    3    0    0 -0.27990870353E+02 -0.19269244014E+02 -0.11471516925E+03  0.11965584137E+03  0.17770000000E+01 0.  1.
</event>
<event>
 8    1  0.1798472E-005  0.1831795E+03  0.7546771E-02  0.1067915E+00
        -11   -1    0    0    0    0  0.00000000000E+00  0.00000000000E+00  0.18250000000E+03  0.18250000000E+03  0.00000000000E+00 0.  1.
         11   -1    0    0    0    0 -0.00000000000E+00 -0.00000000000E+00 -0.18250000000E+03  0.18250000000E+03  0.00000000000E+00 0. -1.
         23    2    1    2    0    0  0.59837050731E+02  0.73141278318E+02  0.12670203612E+03  0.18317953136E+03  0.92580859339E+02 0.  0.
         23    2    1    2    0    0 -0.59837050731E+02 -0.73141278318E+02 -0.12670203612E+03  0.18182046864E+03  0.89861880827E+02 0.  0.
        -11    1    4    4    0    0  0.16213278033E+02 -0.39627959943E+02 -0.21979940834E+02  0.48128613037E+02  0.00000000000E+00 0. -1.
         11    1    4    4    0    0 -0.76050328764E+02 -0.33513318375E+02 -0.10472209529E+03  0.13369185561E+03  0.00000000000E+00 0.  1.
        -15    1    3    3    0    0 -0.79461114304E+01 -0.45479098470E+01  0.59205183595E+02  0.59935262278E+02  0.17770000000E+01 0.  1.
         15    1    3    3    0    0  0.67783162161E+02  0.77689188165E+02  0.67496852529E+02  0.12324426908E+03  0.17770000000E+01 0. -1.
</event>
<event>
 8    1  0.1798472E-005  0.1830777E+03  0.7546771E-02  0.1067996E+00
        -11   -1    0    0    0    0  0.00000000000E+00  0.00000000000E+00  0.18250000000E+03  0.18250000000E+03  0.00000000000E+00 0.  1.
         11   -1    0    0    0    0 -0.00000000000E+00 -0.00000000000E+00 -0.18250000000E+03  0.18250000000E+03  0.00000000000E+00 0. -1.
         23    2    1    2    0    0  0.47887240460E+02 -0.59415155088E+02 -0.13762471897E+03  0.18307765943E+03  0.93560235440E+02 0.  0.
         23    2    1    2    0    0 -0.47887240460E+02  0.59415155088E+02  0.13762471897E+03  0.18192234057E+03  0.91278838047E+02 0.  0.
        -11    1    4    4    0    0 -0.60538710480E+02  0.68176122422E+02  0.13925462173E+03  0.16644749565E+03  0.00000000000E+00 0.  1.
         11    1    4    4    0    0  0.12651470020E+02 -0.87609673335E+01 -0.16299027636E+01  0.15474844920E+02  0.00000000000E+00 0. -1.
        -15    1    3    3    0    0  0.14467628614E+02  0.21015530597E+02 -0.64338907137E+02  0.69235955287E+02  0.17770000000E+01 0.  1.
         15    1    3    3    0    0  0.33419611846E+02 -0.80430685686E+02 -0.73285811834E+02  0.11384170414E+03  0.17770000000E+01 0. -1.
</event>
<event>
 8    1  0.1798472E-005  0.1835081E+03  0.7546771E-02  0.1067655E+00
        -11   -1    0    0    0    0  0.00000000000E+00  0.00000000000E+00  0.18250000000E+03  0.18250000000E+03  0.00000000000E+00 0. -1.
         11   -1    0    0    0    0 -0.00000000000E+00 -0.00000000000E+00 -0.18250000000E+03  0.18250000000E+03  0.00000000000E+00 0.  1.
         23    2    1    2    0    0 -0.21977842817E+02  0.68527916036E+02 -0.13984013115E+03  0.18350812731E+03  0.94556171969E+02 0.  0.
         23    2    1    2    0    0  0.21977842817E+02 -0.68527916036E+02  0.13984013115E+03  0.18149187269E+03  0.90581105774E+02 0.  0.
        -11    1    4    4    0    0  0.46317464658E+02 -0.77026493099E+02  0.10696274470E+03  0.13971190688E+03  0.00000000000E+00 0. -1.
         11    1    4    4    0    0 -0.24339621840E+02  0.84985770628E+01  0.32877386446E+02  0.41779965808E+02  0.00000000000E+00 0.  1.
        -15    1    3    3    0    0  0.28309526907E+01  0.40935144057E+02 -0.14047336233E+03  0.14635444498E+03  0.17770000000E+01 0.  1.
         15    1    3    3    0    0 -0.24808795508E+02  0.27592771979E+02  0.63323117901E+00  0.37153682331E+02  0.17770000000E+01 0. -1.
</event>
<event>
 8    1  0.1798472E-005  0.1934453E+03  0.7546771E-02  0.1060061E+00
        -11   -1    0    0    0    0  0.00000000000E+00  0.00000000000E+00  0.18250000000E+03  0.18250000000E+03  0.00000000000E+00 0. -1.
         11   -1    0    0    0    0 -0.00000000000E+00 -0.00000000000E+00 -0.18250000000E+03  0.18250000000E+03  0.00000000000E+00 0. -1.
         23    2    1    2    0    0  0.83069489726E+02  0.44527882882E+02  0.11135300657E+03  0.17155467243E+03  0.90267608150E+02 0.  0.
         23    2    1    2    0    0 -0.83069489726E+02 -0.44527882882E+02 -0.11135300657E+03  0.19344532757E+03  0.12703672780E+03 0.  0.
        -11    1    4    4    0    0 -0.10724938060E+02 -0.14528411930E+00 -0.10797287808E+03  0.10850432159E+03  0.00000000000E+00 0. -1.
         11    1    4    4    0    0 -0.72344551666E+02 -0.44382598763E+02 -0.33801284958E+01  0.84941005983E+02  0.00000000000E+00 0. -1.
        -15    1    3    3    0    0  0.70555249956E+01  0.24965228161E+02 -0.92910370868E+01  0.27613839813E+02  0.17770000000E+01 0.  1.
         15    1    3    3    0    0  0.76013964731E+02  0.19562654721E+02  0.12064404366E+03  0.14394083261E+03  0.17770000000E+01 0. -1.
</event>
<event>
 8    1  0.1798472E-005  0.1836190E+03  0.7546771E-02  0.1067568E+00
        -11   -1    0    0    0    0  0.00000000000E+00  0.00000000000E+00  0.18250000000E+03  0.18250000000E+03  0.00000000000E+00 0.  1.
         11   -1    0    0    0    0 -0.00000000000E+00 -0.00000000000E+00 -0.18250000000E+03  0.18250000000E+03  0.00000000000E+00 0. -1.
         23    2    1    2    0    0  0.54204614343E+02  0.74126024393E+02 -0.12670337481E+03  0.18138096295E+03  0.91719686119E+02 0.  0.
         23    2    1    2    0    0 -0.54204614343E+02 -0.74126024393E+02  0.12670337481E+03  0.18361903705E+03  0.96069755233E+02 0.  0.
        -11    1    4    4    0    0 -0.13232747919E+02 -0.47994000854E+01  0.96642868111E+02  0.97662601928E+02  0.00000000000E+00 0.  1.
         11    1    4    4    0    0 -0.40971866424E+02 -0.69326624307E+02  0.30060506704E+02  0.85956435125E+02  0.00000000000E+00 0. -1.
        -15    1    3    3    0    0  0.16594530422E+02  0.69831812245E+02 -0.12412819098E+03  0.14339744058E+03  0.17770000000E+01 0. -1.
         15    1    3    3    0    0  0.37610083920E+02  0.42942121478E+01 -0.25751838383E+01  0.37983522365E+02  0.17770000000E+01 0.  1.
</event>
<event>
 8    1  0.1798472E-005  0.1828044E+03  0.7546771E-02  0.1068213E+00
        -11   -1    0    0    0    0  0.00000000000E+00  0.00000000000E+00  0.18250000000E+03  0.18250000000E+03  0.00000000000E+00 0.  1.
         11   -1    0    0    0    0 -0.00000000000E+00 -0.00000000000E+00 -0.18250000000E+03  0.18250000000E+03  0.00000000000E+00 0. -1.
         23    2    1    2    0    0 -0.79807957583E+02  0.80904520151E+02  0.11043323751E+03  0.18219560373E+03  0.89915997459E+02 0.  0.
         23    2    1    2    0    0  0.79807957583E+02 -0.80904520151E+02 -0.11043323751E+03  0.18280439627E+03  0.91143271140E+02 0.  0.
        -11    1    4    4    0    0  0.83601953280E+02 -0.21796341170E+02 -0.63130432402E+02  0.10700382505E+03  0.00000000000E+00 0. -1.
         11    1    4    4    0    0 -0.37939956964E+01 -0.59108178982E+02 -0.47302805103E+02  0.75800571215E+02  0.00000000000E+00 0.  1.
        -15    1    3    3    0    0 -0.90115151823E+02  0.78183527057E+02  0.11891619688E+03  0.16845659411E+03  0.17770000000E+01 0.  1.
         15    1    3    3    0    0  0.10307194240E+02  0.27209930945E+01 -0.84829593754E+01  0.13739009618E+02  0.17770000000E+01 0. -1.
</event>
<event>
 8    1  0.1798472E-005  0.1831803E+03  0.7546771E-02  0.1067915E+00
        -11   -1    0    0    0    0  0.00000000000E+00  0.00000000000E+00  0.18250000000E+03  0.18250000000E+03  0.00000000000E+00 0.  1.
         11   -1    0    0    0    0 -0.00000000000E+00 -0.00000000000E+00 -0.18250000000E+03  0.18250000000E+03  0.00000000000E+00 0. -1.
         23    2    1    2    0    0 -0.52016984119E+02 -0.73753662130E+02  0.13210351714E+03  0.18318033349E+03  0.89209450303E+02 0.  0.
         23    2    1    2    0    0  0.52016984119E+02  0.73753662130E+02 -0.13210351714E+03  0.18181966651E+03  0.86381031325E+02 0.  0.
        -11    1    4    4    0    0  0.35094257432E+02  0.45768766570E+02 -0.13709918707E+03  0.14873659265E+03  0.00000000000E+00 0. -1.
         11    1    4    4    0    0  0.16922726687E+02  0.27984895559E+02  0.49956699241E+01  0.33083073859E+02  0.00000000000E+00 0.  1.
        -15    1    3    3    0    0 -0.23585126340E+02 -0.79597546229E+02  0.12969535576E+03  0.15400022917E+03  0.17770000000E+01 0.  1.
         15    1    3    3    0    0 -0.28431857779E+02  0.58438840996E+01  0.24081613841E+01  0.29180104325E+02  0.17770000000E+01 0. -1.
</event>
<event>
 8    1  0.1798472E-005  0.1825652E+03  0.7546771E-02  0.1068403E+00
        -11   -1    0    0    0    0  0.00000000000E+00  0.00000000000E+00  0.18250000000E+03  0.18250000000E+03  0.00000000000E+00 0.  1.
         11   -1    0    0    0    0 -0.00000000000E+00 -0.00000000000E+00 -0.18250000000E+03  0.18250000000E+03  0.00000000000E+00 0. -1.
         23    2    1    2    0    0 -0.70926199360E+01  0.12517897256E+03  0.96132085624E+02  0.18256515319E+03  0.91479925911E+02 0.  0.
         23    2    1    2    0    0  0.70926199360E+01 -0.12517897256E+03 -0.96132085624E+02  0.18243484681E+03  0.91219597767E+02 0.  0.
        -11    1    4    4    0    0 -0.41334201252E+02 -0.54112398417E+02 -0.52622618555E+02  0.86057003429E+02  0.00000000000E+00 0.  1.
         11    1    4    4    0    0  0.48426821188E+02 -0.71066574140E+02 -0.43509467069E+02  0.96377843382E+02  0.00000000000E+00 0. -1.
        -15    1    3    3    0    0  0.25377326113E+01  0.11375387769E+03  0.34189723632E+02  0.11882120900E+03  0.17770000000E+01 0. -1.
         15    1    3    3    0    0 -0.96303525474E+01  0.11425094864E+02  0.61942361992E+02  0.63743944191E+02  0.17770000000E+01 0.  1.
</event>
<event>
 8    1  0.1798472E-005  0.1846617E+03  0.7546771E-02  0.1066747E+00
        -11   -1    0    0    0    0  0.00000000000E+00  0.00000000000E+00  0.18250000000E+03  0.18250000000E+03  0.00000000000E+00 0.  1.
         11   -1    0    0    0    0 -0.00000000000E+00 -0.00000000000E+00 -0.18250000000E+03  0.18250000000E+03  0.00000000000E+00 0. -1.
         23    2    1    2    0    0  0.35523299582E+02  0.10632101427E+03 -0.10773420588E+03  0.18033828586E+03  0.91373821975E+02 0.  0.
         23    2    1    2    0    0 -0.35523299582E+02 -0.10632101427E+03  0.10773420588E+03  0.18466171414E+03  0.99635468894E+02 0.  0.
        -11    1    4    4    0    0 -0.41415520528E+02 -0.11970201698E+03  0.11236883985E+03  0.16932387422E+03  0.00000000000E+00 0.  1.
         11    1    4    4    0    0  0.58922209464E+01  0.13381002712E+02 -0.46346339713E+01  0.15337839917E+02  0.00000000000E+00 0. -1.
        -15    1    3    3    0    0  0.16139014092E+02 -0.38355634527E+01  0.87503681303E+01  0.18838948863E+02  0.17770000000E+01 0.  1.
         15    1    3    3    0    0  0.19384285490E+02  0.11015657772E+03 -0.11648457401E+03  0.16149933700E+03  0.17770000000E+01 0. -1.
</event>
<event>
 8    1  0.1798472E-005  0.1825669E+03  0.7546771E-02  0.1068402E+00
        -11   -1    0    0    0    0  0.00000000000E+00  0.00000000000E+00  0.18250000000E+03  0.18250000000E+03  0.00000000000E+00 0.  1.
         11   -1    0    0    0    0 -0.00000000000E+00 -0.00000000000E+00 -0.18250000000E+03  0.18250000000E+03  0.00000000000E+00 0. -1.
         23    2    1    2    0    0 -0.17278376915E+02  0.85224218303E+02 -0.13145144617E+03  0.18243305067E+03  0.91872877294E+02 0.  0.
         23    2    1    2    0    0  0.17278376915E+02 -0.85224218303E+02  0.13145144617E+03  0.18256694933E+03  0.92138475110E+02 0.  0.
        -11    1    4    4    0    0 -0.24024391259E+02 -0.69354763539E+02  0.46798646477E+02  0.87048078169E+02  0.00000000000E+00 0.  1.
         11    1    4    4    0    0  0.41302768174E+02 -0.15869454764E+02  0.84652799689E+02  0.95518871164E+02  0.00000000000E+00 0. -1.
        -15    1    3    3    0    0 -0.25742021439E+02 -0.12275751874E+02 -0.31718119829E+02  0.42691247421E+02  0.17770000000E+01 0.  1.
         15    1    3    3    0    0  0.84636445248E+01  0.97499970177E+02 -0.99733326337E+02  0.13974180325E+03  0.17770000000E+01 0. -1.
</event>
<event>
 8    1  0.1798472E-005  0.1843587E+03  0.7546771E-02  0.1066985E+00
        -11   -1    0    0    0    0  0.00000000000E+00  0.00000000000E+00  0.18250000000E+03  0.18250000000E+03  0.00000000000E+00 0.  1.
         11   -1    0    0    0    0 -0.00000000000E+00 -0.00000000000E+00 -0.18250000000E+03  0.18250000000E+03  0.00000000000E+00 0. -1.
         23    2    1    2    0    0  0.62701701592E+02  0.13075550280E+03 -0.58032124684E+02  0.18064131200E+03  0.90747182937E+02 0.  0.
         23    2    1    2    0    0 -0.62701701592E+02 -0.13075550280E+03  0.58032124684E+02  0.18435868800E+03  0.97938212409E+02 0.  0.
        -11    1    4    4    0    0 -0.78006262590E+01 -0.22725108809E+02  0.58430561262E+02  0.63177613360E+02  0.00000000000E+00 0.  1.
         11    1    4    4    0    0 -0.54901075333E+02 -0.10803039399E+03 -0.39843657823E+00  0.12118107464E+03  0.00000000000E+00 0. -1.
        -15    1    3    3    0    0  0.42962644536E+02  0.26748957761E+02  0.14052543368E+02  0.52554041433E+02  0.17770000000E+01 0.  1.
         15    1    3    3    0    0  0.19739057057E+02  0.10400654504E+03 -0.72084668052E+02  0.12808727057E+03  0.17770000000E+01 0. -1.
</event>
<event>
 8    1  0.1798472E-005  0.1836885E+03  0.7546771E-02  0.1067513E+00
        -11   -1    0    0    0    0  0.00000000000E+00  0.00000000000E+00  0.18250000000E+03  0.18250000000E+03  0.00000000000E+00 0. -1.
         11   -1    0    0    0    0 -0.00000000000E+00 -0.00000000000E+00 -0.18250000000E+03  0.18250000000E+03  0.00000000000E+00 0. -1.
         23    2    1    2    0    0  0.34738929991E+02  0.51852516495E+02 -0.14373462149E+03  0.18131147229E+03  0.91207082214E+02 0.  0.
         23    2    1    2    0    0 -0.34738929991E+02 -0.51852516495E+02  0.14373462149E+03  0.18368852771E+03  0.95845485405E+02 0.  0.
        -11    1    4    4    0    0  0.22354386792E+01 -0.59585230276E+02  0.13081900805E+03  0.14376720669E+03  0.00000000000E+00 0. -1.
         11    1    4    4    0    0 -0.36974368670E+02  0.77327137814E+01  0.12915613441E+02  0.39921321014E+02  0.00000000000E+00 0. -1.
        -15    1    3    3    0    0  0.45595165673E+01  0.35052270367E+02 -0.20335421740E+01  0.35450583521E+02  0.17770000000E+01 0.  1.
         15    1    3    3    0    0  0.30179413424E+02  0.16800246128E+02 -0.14170107932E+03  0.14586088877E+03  0.17770000000E+01 0. -1.
</event>
<event>
 8    1  0.1798472E-005  0.1826110E+03  0.7546771E-02  0.1068367E+00
        -11   -1    0    0    0    0  0.00000000000E+00  0.00000000000E+00  0.18250000000E+03  0.18250000000E+03  0.00000000000E+00 0. -1.
         11   -1    0    0    0    0 -0.00000000000E+00 -0.00000000000E+00 -0.18250000000E+03  0.18250000000E+03  0.00000000000E+00 0.  1.
         23    2    1    2    0    0 -0.11437761739E+02  0.57397978331E+01  0.15787884855E+03  0.18261095127E+03  0.90869472481E+02 0.  0.
         23    2    1    2    0    0  0.11437761739E+02 -0.57397978331E+01 -0.15787884855E+03  0.18238904873E+03  0.90422710672E+02 0.  0.
        -11    1    4    4    0    0  0.37503603862E+02  0.13603312325E+02 -0.28572504321E+02  0.49070952834E+02  0.00000000000E+00 0.  1.
         11    1    4    4    0    0 -0.26065842123E+02 -0.19343110158E+02 -0.12930634423E+03  0.13331809590E+03  0.00000000000E+00 0. -1.
        -15    1    3    3    0    0 -0.89659345972E+01 -0.42245394591E+02  0.83914529641E+02  0.94392093744E+02  0.17770000000E+01 0. -1.
         15    1    3    3    0    0 -0.24718271420E+01  0.47985192425E+02  0.73964318911E+02  0.88218857522E+02  0.17770000000E+01 0.  1.
</event>
<event>
 8    1  0.1798472E-005  0.1826773E+03  0.7546771E-02  0.1068314E+00
        -11   -1    0    0    0    0  0.00000000000E+00  0.00000000000E+00  0.18250000000E+03  0.18250000000E+03  0.00000000000E+00 0.  1.
         11   -1    0    0    0    0 -0.00000000000E+00 -0.00000000000E+00 -0.18250000000E+03  0.18250000000E+03  0.00000000000E+00 0. -1.
         23    2    1    2    0    0 -0.13022818331E+02 -0.52760414742E+02 -0.14873121522E+03  0.18267730665E+03  0.91086600676E+02 0.  0.
         23    2    1    2    0    0  0.13022818331E+02  0.52760414742E+02  0.14873121522E+03  0.18232269335E+03  0.90373308935E+02 0.  0.
        -11    1    4    4    0    0  0.43587686487E+02  0.31126905095E+02  0.38658780171E+02  0.66055067318E+02  0.00000000000E+00 0.  1.
         11    1    4    4    0    0 -0.30564868155E+02  0.21633509646E+02  0.11007243505E+03  0.11626762603E+03  0.00000000000E+00 0. -1.
        -15    1    3    3    0    0 -0.44027760983E+01 -0.32916321871E+02 -0.15621450893E+03  0.15971536937E+03  0.17770000000E+01 0. -1.
         15    1    3    3    0    0 -0.86200422330E+01 -0.19844092870E+02  0.74832937103E+01  0.22961937281E+02  0.17770000000E+01 0.  1.
</event>
<event>
 8    1  0.1798472E-005  0.1837157E+03  0.7546771E-02  0.1067491E+00
        -11   -1    0    0    0    0  0.00000000000E+00  0.00000000000E+00  0.18250000000E+03  0.18250000000E+03  0.00000000000E+00 0.  1.
         11   -1    0    0    0    0 -0.00000000000E+00 -0.00000000000E+00 -0.18250000000E+03  0.18250000000E+03  0.00000000000E+00 0. -1.
         23    2    1    2    0    0 -0.30732839742E+02  0.12915921847E+03 -0.84945007757E+02  0.18128429831E+03  0.89564118462E+02 0.  0.
         23    2    1    2    0    0  0.30732839742E+02 -0.12915921847E+03  0.84945007757E+02  0.18371570169E+03  0.94388524461E+02 0.  0.
        -11    1    4    4    0    0  0.31404081602E+02 -0.14336731845E+03  0.68476918051E+02  0.16195521803E+03  0.00000000000E+00 0.  1.
         11    1    4    4    0    0 -0.67124186035E+00  0.14208099978E+02  0.16468089707E+02  0.21760483663E+02  0.00000000000E+00 0. -1.
        -15    1    3    3    0    0 -0.14019436477E+02  0.13884927449E+03 -0.66833775519E+02  0.15474358437E+03  0.17770000000E+01 0. -1.
         15    1    3    3    0    0 -0.16713403265E+02 -0.96900560143E+01 -0.18111232239E+02  0.26540713941E+02  0.17770000000E+01 0.  1.
</event>
<event>
 8    1  0.1798472E-005  0.1826579E+03  0.7546771E-02  0.1068329E+00
        -11   -1    0    0    0    0  0.00000000000E+00  0.00000000000E+00  0.18250000000E+03  0.18250000000E+03  0.00000000000E+00 0.  1.
         11   -1    0    0    0    0 -0.00000000000E+00 -0.00000000000E+00 -0.18250000000E+03  0.18250000000E+03  0.00000000000E+00 0. -1.
         23    2    1    2    0    0  0.21951330370E+02 -0.32435996774E+02 -0.15610189641E+03  0.18234209031E+03  0.85713948937E+02 0.  0.
         23    2    1    2    0    0 -0.21951330370E+02  0.32435996774E+02  0.15610189641E+03  0.18265790969E+03  0.86383766515E+02 0.  0.
        -11    1    4    4    0    0 -0.42821892889E+02 -0.10838732716E+02  0.96296492582E+02  0.10594435861E+03  0.00000000000E+00 0. -1.
         11    1    4    4    0    0  0.20870562519E+02  0.43274729490E+02  0.59805403831E+02  0.76713551082E+02  0.00000000000E+00 0.  1.
        -15    1    3    3    0    0 -0.67370714445E+01 -0.25118075977E+02 -0.14975970186E+03  0.15201128873E+03  0.17770000000E+01 0. -1.
         15    1    3    3    0    0  0.28688401815E+02 -0.73179207966E+01 -0.63421945555E+01  0.30330801576E+02  0.17770000000E+01 0.  1.
</event>
<event>
 8    1  0.1798472E-005  0.1829229E+03  0.7546771E-02  0.1068119E+00
        -11   -1    0    0    0    0  0.00000000000E+00  0.00000000000E+00  0.18250000000E+03  0.18250000000E+03  0.00000000000E+00 0.  1.
         11   -1    0    0    0    0 -0.00000000000E+00 -0.00000000000E+00 -0.18250000000E+03  0.18250000000E+03  0.00000000000E+00 0. -1.
         23    2    1    2    0    0 -0.46090960501E+02  0.74048046054E+02 -0.13203746293E+03  0.18207705976E+03  0.90059282185E+02 0.  0.
         23    2    1    2    0    0  0.46090960501E+02 -0.74048046054E+02  0.13203746293E+03  0.18292294024E+03  0.91757401256E+02 0.  0.
        -11    1    4    4    0    0  0.24345038820E+02 -0.87715801596E+02  0.12777691616E+03  0.15688748538E+03  0.00000000000E+00 0.  1.
         11    1    4    4    0    0  0.21745921681E+02  0.13667755542E+02  0.42605467741E+01  0.26035454867E+02  0.00000000000E+00 0. -1.
        -15    1    3    3    0    0 -0.49069154646E+01  0.22436726046E+02  0.10244033401E+02  0.25210760487E+02  0.17770000000E+01 0.  1.
         15    1    3    3    0    0 -0.41184045037E+02  0.51611320009E+02 -0.14228149633E+03  0.15686629927E+03  0.17770000000E+01 0. -1.
</event>
<event>
 8    1  0.1798472E-005  0.1854931E+03  0.7546771E-02  0.1066097E+00
        -11   -1    0    0    0    0  0.00000000000E+00  0.00000000000E+00  0.18250000000E+03  0.18250000000E+03  0.00000000000E+00 0.  1.
         11   -1    0    0    0    0 -0.00000000000E+00 -0.00000000000E+00 -0.18250000000E+03  0.18250000000E+03  0.00000000000E+00 0. -1.
         23    2    1    2    0    0 -0.12698508652E+02 -0.79022646547E+02  0.13587010480E+03  0.17950685801E+03  0.85768268631E+02 0.  0.
         23    2    1    2    0    0  0.12698508652E+02  0.79022646547E+02 -0.13587010480E+03  0.18549314199E+03  0.97679012891E+02 0.  0.
        -11    1    4    4    0    0  0.34967830266E+02  0.41077919840E+02 -0.13044926336E+03  0.14116357520E+03  0.00000000000E+00 0. -1.
         11    1    4    4    0    0 -0.22269321614E+02  0.37944726707E+02 -0.54208414351E+01  0.44329566791E+02  0.00000000000E+00 0.  1.
        -15    1    3    3    0    0 -0.16602864800E+02 -0.65734794221E+02  0.14684240843E+03  0.16174847429E+03  0.17770000000E+01 0.  1.
         15    1    3    3    0    0  0.39043561476E+01 -0.13287852326E+02 -0.10972303633E+02  0.17758383721E+02  0.17770000000E+01 0. -1.
</event>
<event>
 8    1  0.1798472E-005  0.1826878E+03  0.7546771E-02  0.1068305E+00
        -11   -1    0    0    0    0  0.00000000000E+00  0.00000000000E+00  0.18250000000E+03  0.18250000000E+03  0.00000000000E+00 0.  1.
         11   -1    0    0    0    0 -0.00000000000E+00 -0.00000000000E+00 -0.18250000000E+03  0.18250000000E+03  0.00000000000E+00 0.  1.
         23    2    1    2    0    0 -0.53930299328E+01  0.43837995259E+02 -0.15177524551E+03  0.18231221356E+03  0.90835915063E+02 0.  0.
         23    2    1    2    0    0  0.53930299328E+01 -0.43837995259E+02  0.15177524551E+03  0.18268778644E+03  0.91587376661E+02 0.  0.
        -11    1    4    4    0    0  0.14299333939E+02 -0.49271112706E+02  0.16086665739E+03  0.16884962232E+03  0.00000000000E+00 0.  1.
         11    1    4    4    0    0 -0.89063040065E+01  0.54331174473E+01 -0.90914118771E+01  0.13838164119E+02  0.00000000000E+00 0.  1.
        -15    1    3    3    0    0  0.14717781761E+02  0.45511576430E+02 -0.25137810022E+02  0.54064627167E+02  0.17770000000E+01 0. -1.
         15    1    3    3    0    0 -0.20110811694E+02 -0.16735811707E+01 -0.12663743549E+03  0.12824758640E+03  0.17770000000E+01 0.  1.
</event>
<event>
 8    1  0.1798472E-005  0.1864588E+03  0.7546771E-02  0.1065347E+00
        -11   -1    0    0    0    0  0.00000000000E+00  0.00000000000E+00  0.18250000000E+03  0.18250000000E+03  0.00000000000E+00 0.  1.
         11   -1    0    0    0    0 -0.00000000000E+00 -0.00000000000E+00 -0.18250000000E+03  0.18250000000E+03  0.00000000000E+00 0. -1.
         23    2    1    2    0    0 -0.55633093660E+02  0.82731935642E+02 -0.11653135927E+03  0.18645881871E+03  0.10605526435E+03 0.  0.
         23    2    1    2    0    0  0.55633093660E+02 -0.82731935642E+02  0.11653135927E+03  0.17854118129E+03  0.91420902623E+02 0.  0.
        -11    1    4    4    0    0  0.22778176381E+02  0.15794451238E+02  0.92474756466E+01  0.29220297996E+02  0.00000000000E+00 0. -1.
         11    1    4    4    0    0  0.32854917279E+02 -0.98526386880E+02  0.10728388363E+03  0.14932088329E+03  0.00000000000E+00 0.  1.
        -15    1    3    3    0    0 -0.34527570439E+02  0.69963592409E+01  0.10720921970E+02  0.36867303399E+02  0.17770000000E+01 0.  1.
         15    1    3    3    0    0 -0.21105523221E+02  0.75735576401E+02 -0.12725228124E+03  0.14959151531E+03  0.17770000000E+01 0. -1.
</event>
<event>
 8    1  0.1798472E-005  0.1856506E+03  0.7546771E-02  0.1065974E+00
        -11   -1    0    0    0    0  0.00000000000E+00  0.00000000000E+00  0.18250000000E+03  0.18250000000E+03  0.00000000000E+00 0.  1.
         11   -1    0    0    0    0 -0.00000000000E+00 -0.00000000000E+00 -0.18250000000E+03  0.18250000000E+03  0.00000000000E+00 0. -1.
         23    2    1    2    0    0 -0.22922001213E+02  0.19624894479E+02 -0.15187788806E+03  0.18565061980E+03  0.10241437950E+03 0.  0.
         23    2    1    2    0    0  0.22922001213E+02 -0.19624894479E+02  0.15187788806E+03  0.17934938020E+03  0.90491727100E+02 0.  0.
        -11    1    4    4    0    0  0.32291566281E+02  0.83437170465E+01  0.10556924898E+02  0.34983017742E+02  0.00000000000E+00 0.  1.
         11    1    4    4    0    0 -0.93695650684E+01 -0.27968611525E+02  0.14132096316E+03  0.14436636246E+03  0.00000000000E+00 0. -1.
        -15    1    3    3    0    0 -0.27154825843E+00  0.42688538799E+02 -0.15449950513E+02  0.45433949675E+02  0.17770000000E+01 0.  1.
         15    1    3    3    0    0 -0.22650452954E+02 -0.23063644320E+02 -0.13642793755E+03  0.14021667012E+03  0.17770000000E+01 0. -1.
</event>
<event>
 8    1  0.1798472E-005  0.1872242E+03  0.7546771E-02  0.1064755E+00
        -11   -1    0    0    0    0  0.00000000000E+00  0.00000000000E+00  0.18250000000E+03  0.18250000000E+03  0.00000000000E+00 0. -1.
         11   -1    0    0    0    0 -0.00000000000E+00 -0.00000000000E+00 -0.18250000000E+03  0.18250000000E+03  0.00000000000E+00 0. -1.
         23    2    1    2    0    0  0.96227736249E+02 -0.52609769778E+02 -0.12566158268E+03  0.18722418480E+03  0.85055845834E+02 0.  0.
         23    2    1    2    0    0 -0.96227736249E+02  0.52609769778E+02  0.12566158268E+03  0.17777581520E+03  0.61529196394E+02 0.  0.
        -11    1    4    4    0    0 -0.68381312357E+02  0.23018550201E+02  0.38898377353E+02  0.81969148426E+02  0.00000000000E+00 0. -1.
         11    1    4    4    0    0 -0.27846423892E+02  0.29591219577E+02  0.86763205331E+02  0.95806666777E+02  0.00000000000E+00 0. -1.
        -15    1    3    3    0    0  0.21259268455E+02 -0.52274170315E+02 -0.25118635619E+02  0.61795217952E+02  0.17770000000E+01 0. -1.
         15    1    3    3    0    0  0.74968467794E+02 -0.33559946368E+00 -0.10054294706E+03  0.12542896685E+03  0.17770000000E+01 0.  1.
</event>
<event>
 8    1  0.1798472E-005  0.1852111E+03  0.7546771E-02  0.1066317E+00
        -11   -1    0    0    0    0  0.00000000000E+00  0.00000000000E+00  0.18250000000E+03  0.18250000000E+03  0.00000000000E+00 0.  1.
         11   -1    0    0    0    0 -0.00000000000E+00 -0.00000000000E+00 -0.18250000000E+03  0.18250000000E+03  0.00000000000E+00 0.  1.
         23    2    1    2    0    0  0.50843643819E+02 -0.35936468957E+02  0.13888553859E+03  0.18521109319E+03  0.10553411910E+03 0.  0.
         23    2    1    2    0    0 -0.50843643819E+02  0.35936468957E+02 -0.13888553859E+03  0.17978890681E+03  0.95699280387E+02 0.  0.
        -11    1    4    4    0    0 -0.59765235737E+02 -0.14065294332E+02 -0.59181620361E+02  0.85277078374E+02  0.00000000000E+00 0.  1.
         11    1    4    4    0    0  0.89215919186E+01  0.50001763290E+02 -0.79703918225E+02  0.94511828439E+02  0.00000000000E+00 0.  1.
        -15    1    3    3    0    0 -0.15479217544E+02  0.17516874858E+02  0.75395122798E+02  0.78955869644E+02  0.17770000000E+01 0.  1.
         15    1    3    3    0    0  0.66322861362E+02 -0.53453343815E+02  0.63490415788E+02  0.10625522354E+03  0.17770000000E+01 0. -1.
</event>
<event>
 8    1  0.1798472E-005  0.1832839E+03  0.7546771E-02  0.1067833E+00
        -11   -1    0    0    0    0  0.00000000000E+00  0.00000000000E+00  0.18250000000E+03  0.18250000000E+03  0.00000000000E+00 0.  1.
         11   -1    0    0    0    0 -0.00000000000E+00 -0.00000000000E+00 -0.18250000000E+03  0.18250000000E+03  0.00000000000E+00 0. -1.
         23    2    1    2    0    0 -0.84932524736E+02  0.11482348510E+03 -0.66905718981E+02  0.18328389258E+03  0.93373677013E+02 0.  0.
         23    2    1    2    0    0  0.84932524736E+02 -0.11482348510E+03  0.66905718981E+02  0.18171610742E+03  0.90257420615E+02 0.  0.
        -11    1    4    4    0    0  0.78068495400E+02 -0.11288756210E+03  0.85565581553E+02  0.16173979225E+03  0.00000000000E+00 0.  1.
         11    1    4    4    0    0  0.68640293360E+01 -0.19359229970E+01 -0.18659862572E+02  0.19976315170E+02  0.00000000000E+00 0. -1.
        -15    1    3    3    0    0 -0.20779396194E+01  0.80110932081E+02 -0.39404903564E+02  0.89319557913E+02  0.17770000000E+01 0.  1.
         15    1    3    3    0    0 -0.82854585116E+02  0.34712553016E+02 -0.27500815417E+02  0.93964334666E+02  0.17770000000E+01 0. -1.
</event>
<event>
 8    1  0.1798472E-005  0.1825027E+03  0.7546771E-02  0.1068453E+00
        -11   -1    0    0    0    0  0.00000000000E+00  0.00000000000E+00  0.18250000000E+03  0.18250000000E+03  0.00000000000E+00 0.  1.
         11   -1    0    0    0    0 -0.00000000000E+00 -0.00000000000E+00 -0.18250000000E+03  0.18250000000E+03  0.00000000000E+00 0. -1.
         23    2    1    2    0    0 -0.31700424836E+02 -0.14823576114E+03  0.45522249346E+02  0.18250273966E+03  0.90863727531E+02 0.  0.
         23    2    1    2    0    0  0.31700424836E+02  0.14823576114E+03 -0.45522249346E+02  0.18249726034E+03  0.90852721647E+02 0.  0.
        -11    1    4    4    0    0  0.78849643840E+01  0.12002069532E+03  0.44531965370E+01  0.12036183335E+03  0.00000000000E+00 0.  1.
         11    1    4    4    0    0  0.23815460452E+02  0.28215065820E+02 -0.49975445883E+02  0.62135426988E+02  0.00000000000E+00 0. -1.
        -15    1    3    3    0    0 -0.43990309552E+02 -0.15550157301E+03  0.46236730638E+02  0.16809782727E+03  0.17770000000E+01 0. -1.
         15    1    3    3    0    0  0.12289884716E+02  0.72658118679E+01 -0.71448129234E+00  0.14404912390E+02  0.17770000000E+01 0.  1.
</event>
<event>
 8    1  0.1798472E-005  0.1830858E+03  0.7546771E-02  0.1067989E+00
        -11   -1    0    0    0    0  0.00000000000E+00  0.00000000000E+00  0.18250000000E+03  0.18250000000E+03  0.00000000000E+00 0.  1.
         11   -1    0    0    0    0 -0.00000000000E+00 -0.00000000000E+00 -0.18250000000E+03  0.18250000000E+03  0.00000000000E+00 0. -1.
         23    2    1    2    0    0  0.69496602504E+01  0.28433894745E+02 -0.15518672490E+03  0.18308581808E+03  0.92632138323E+02 0.  0.
         23    2    1    2    0    0 -0.69496602504E+01 -0.28433894745E+02  0.15518672490E+03  0.18191418192E+03  0.90294328998E+02 0.  0.
        -11    1    4    4    0    0  0.22122927365E+02  0.12437171337E+02  0.83027877191E+01  0.26702873066E+02  0.00000000000E+00 0. -1.
         11    1    4    4    0    0 -0.29072587616E+02 -0.40871066082E+02  0.14688393718E+03  0.15521130885E+03  0.00000000000E+00 0.  1.
        -15    1    3    3    0    0 -0.39273748279E+02 -0.55350808039E+01 -0.66494971551E+02  0.77445486595E+02  0.17770000000E+01 0.  1.
         15    1    3    3    0    0  0.46223408529E+02  0.33968975549E+02 -0.88691753349E+02  0.10564033149E+03  0.17770000000E+01 0. -1.
</event>
<event>
 8    1  0.1798472E-005  0.1843596E+03  0.7546771E-02  0.1066984E+00
        -11   -1    0    0    0    0  0.00000000000E+00  0.00000000000E+00  0.18250000000E+03  0.18250000000E+03  0.00000000000E+00 0.  1.
         11   -1    0    0    0    0 -0.00000000000E+00 -0.00000000000E+00 -0.18250000000E+03  0.18250000000E+03  0.00000000000E+00 0. -1.
         23    2    1    2    0    0 -0.44692225338E+02  0.40525228969E+02  0.14825687451E+03  0.18435957781E+03  0.91480401740E+02 0.  0.
         23    2    1    2    0    0  0.44692225338E+02 -0.40525228969E+02 -0.14825687451E+03  0.18064042219E+03  0.83732742113E+02 0.  0.
        -11    1    4    4    0    0 -0.11732595305E+02  0.18170330169E+02 -0.27204928716E+02  0.34755184325E+02  0.00000000000E+00 0.  1.
         11    1    4    4    0    0  0.56424820643E+02 -0.58695559138E+02 -0.12105194579E+03  0.14588523787E+03  0.00000000000E+00 0. -1.
        -15    1    3    3    0    0 -0.16664711423E+02  0.78507588885E+01 -0.95156589359E+01  0.20809913886E+02  0.17770000000E+01 0. -1.
         15    1    3    3    0    0 -0.28027513914E+02  0.32674470080E+02  0.15777253344E+03  0.16354966392E+03  0.17770000000E+01 0.  1.
</event>
<event>
 8    1  0.1798472E-005  0.1827010E+03  0.7546771E-02  0.1068295E+00
        -11   -1    0    0    0    0  0.00000000000E+00  0.00000000000E+00  0.18250000000E+03  0.18250000000E+03  0.00000000000E+00 0.  1.
         11   -1    0    0    0    0 -0.00000000000E+00 -0.00000000000E+00 -0.18250000000E+03  0.18250000000E+03  0.00000000000E+00 0. -1.
         23    2    1    2    0    0  0.14314425877E+03 -0.42966989374E+02  0.52622151887E+02  0.18270102951E+03  0.90962268658E+02 0.  0.
         23    2    1    2    0    0 -0.14314425877E+03  0.42966989374E+02 -0.52622151887E+02  0.18229897049E+03  0.90151998199E+02 0.  0.
        -11    1    4    4    0    0 -0.13637050642E+03  0.23520878362E+02 -0.70248292803E+02  0.15519332905E+03  0.00000000000E+00 0. -1.
         11    1    4    4    0    0 -0.67737523485E+01  0.19446111012E+02  0.17626140916E+02  0.27105641442E+02  0.00000000000E+00 0.  1.
        -15    1    3    3    0    0 -0.60158080183E+01 -0.18262494401E+02 -0.64652830221E+01  0.20363355848E+02  0.17770000000E+01 0. -1.
         15    1    3    3    0    0  0.14916006679E+03 -0.24704494973E+02  0.59087434909E+02  0.16233767366E+03  0.17770000000E+01 0.  1.
</event>
<event>
 8    1  0.1798472E-005  0.1825210E+03  0.7546771E-02  0.1068438E+00
        -11   -1    0    0    0    0  0.00000000000E+00  0.00000000000E+00  0.18250000000E+03  0.18250000000E+03  0.00000000000E+00 0.  1.
         11   -1    0    0    0    0 -0.00000000000E+00 -0.00000000000E+00 -0.18250000000E+03  0.18250000000E+03  0.00000000000E+00 0. -1.
         23    2    1    2    0    0  0.62959014968E+02  0.33676456796E+02 -0.13911438660E+03  0.18247895497E+03  0.94062825502E+02 0.  0.
         23    2    1    2    0    0 -0.62959014968E+02 -0.33676456796E+02  0.13911438660E+03  0.18252104503E+03  0.94144452897E+02 0.  0.
        -11    1    4    4    0    0 -0.84558471787E+02 -0.35154713632E+02  0.87970304176E+02  0.12698331961E+03  0.00000000000E+00 0.  1.
         11    1    4    4    0    0  0.21599456819E+02  0.14782568362E+01  0.51144082422E+02  0.55537725421E+02  0.00000000000E+00 0. -1.
        -15    1    3    3    0    0  0.24634758927E+02 -0.15683148892E+02  0.76252642096E+00  0.29267245892E+02  0.17770000000E+01 0.  1.
         15    1    3    3    0    0  0.38324256041E+02  0.49359605688E+02 -0.13987691302E+03  0.15321170908E+03  0.17770000000E+01 0. -1.
</event>
<event>
 8    1  0.1798472E-005  0.1836547E+03  0.7546771E-02  0.1067539E+00
        -11   -1    0    0    0    0  0.00000000000E+00  0.00000000000E+00  0.18250000000E+03  0.18250000000E+03  0.00000000000E+00 0. -1.
         11   -1    0    0    0    0 -0.00000000000E+00 -0.00000000000E+00 -0.18250000000E+03  0.18250000000E+03  0.00000000000E+00 0. -1.
         23    2    1    2    0    0 -0.10575700320E+01  0.35452922841E+02 -0.15587135503E+03  0.18365473803E+03  0.90416565367E+02 0.  0.
         23    2    1    2    0    0  0.10575700320E+01 -0.35452922841E+02  0.15587135503E+03  0.18134526197E+03  0.85628246083E+02 0.  0.
        -11    1    4    4    0    0  0.16930045150E+02  0.23454554505E+02  0.72321566570E+02  0.77891922219E+02  0.00000000000E+00 0. -1.
         11    1    4    4    0    0 -0.15872475118E+02 -0.58907477346E+02  0.83549788456E+02  0.10345333975E+03  0.00000000000E+00 0. -1.
        -15    1    3    3    0    0  0.12312006679E+01  0.56190640361E+02 -0.15238253538E+03  0.16242690275E+03  0.17770000000E+01 0. -1.
         15    1    3    3    0    0 -0.22887706999E+01 -0.20737717520E+02 -0.34888196438E+01  0.21227835282E+02  0.17770000000E+01 0.  1.
</event>
<event>
 8    1  0.1798472E-005  0.1826479E+03  0.7546771E-02  0.1068337E+00
        -11   -1    0    0    0    0  0.00000000000E+00  0.00000000000E+00  0.18250000000E+03  0.18250000000E+03  0.00000000000E+00 0.  1.
         11   -1    0    0    0    0 -0.00000000000E+00 -0.00000000000E+00 -0.18250000000E+03  0.18250000000E+03  0.00000000000E+00 0. -1.
         23    2    1    2    0    0 -0.42157142281E+01 -0.18916020454E+02 -0.15662773355E+03  0.18235206624E+03  0.91347912222E+02 0.  0.
         23    2    1    2    0    0  0.42157142281E+01  0.18916020454E+02  0.15662773355E+03  0.18264793376E+03  0.91937112824E+02 0.  0.
        -11    1    4    4    0    0  0.43727390404E+02 -0.72820663908E+01  0.95532829750E+02  0.10531683020E+03  0.00000000000E+00 0. -1.
         11    1    4    4    0    0 -0.39511676176E+02  0.26198086845E+02  0.61094903800E+02  0.77331103567E+02  0.00000000000E+00 0.  1.
        -15    1    3    3    0    0  0.22493577206E+02 -0.46755155735E+02 -0.11123172181E+03  0.12275039417E+03  0.17770000000E+01 0. -1.
         15    1    3    3    0    0 -0.26709291434E+02  0.27839135281E+02 -0.45396011737E+02  0.59601672063E+02  0.17770000000E+01 0.  1.
</event>
<event>
 8    1  0.1798472E-005  0.1829378E+03  0.7546771E-02  0.1068107E+00
        -11   -1    0    0    0    0  0.00000000000E+00  0.00000000000E+00  0.18250000000E+03  0.18250000000E+03  0.00000000000E+00 0. -1.
         11   -1    0    0    0    0 -0.00000000000E+00 -0.00000000000E+00 -0.18250000000E+03  0.18250000000E+03  0.00000000000E+00 0.  1.
         23    2    1    2    0    0 -0.12364244748E+03 -0.59952668211E+02  0.78901968866E+02  0.18206222707E+03  0.89662459197E+02 0.  0.
         23    2    1    2    0    0  0.12364244748E+03  0.59952668211E+02 -0.78901968866E+02  0.18293777293E+03  0.91427188674E+02 0.  0.
        -11    1    4    4    0    0  0.70780337549E+02 -0.14450336518E+02 -0.47316672266E+02  0.86357025675E+02  0.00000000000E+00 0.  1.
         11    1    4    4    0    0  0.52862109934E+02  0.74403004729E+02 -0.31585296601E+02  0.96580747257E+02  0.00000000000E+00 0. -1.
        -15    1    3    3    0    0 -0.13279558957E+03 -0.69633751889E+02  0.76731621120E+02  0.16844710571E+03  0.17770000000E+01 0. -1.
         15    1    3    3    0    0  0.91531420922E+01  0.96810836779E+01  0.21703477464E+01  0.13615121361E+02  0.17770000000E+01 0.  1.
</event>
<event>
 8    1  0.1798472E-005  0.1841575E+03  0.7546771E-02  0.1067143E+00
        -11   -1    0    0    0    0  0.00000000000E+00  0.00000000000E+00  0.18250000000E+03  0.18250000000E+03  0.00000000000E+00 0.  1.
         11   -1    0    0    0    0 -0.00000000000E+00 -0.00000000000E+00 -0.18250000000E+03  0.18250000000E+03  0.00000000000E+00 0. -1.
         23    2    1    2    0    0  0.15518234075E+03 -0.24452742268E+02  0.13457917861E+02  0.18415753678E+03  0.95149289623E+02 0.  0.
         23    2    1    2    0    0 -0.15518234075E+03  0.24452742268E+02 -0.13457917861E+02  0.18084246322E+03  0.88562889882E+02 0.  0.
        -11    1    4    4    0    0 -0.32681327420E+02  0.39715542013E+02 -0.24366481405E+02  0.56913257290E+02  0.00000000000E+00 0. -1.
         11    1    4    4    0    0 -0.12250101333E+03 -0.15262799745E+02  0.10908563544E+02  0.12392920593E+03  0.00000000000E+00 0.  1.
        -15    1    3    3    0    0  0.14754229746E+03 -0.47108989100E+02 -0.32662261101E+01  0.15492518309E+03  0.17770000000E+01 0. -1.
         15    1    3    3    0    0  0.76400432942E+01  0.22656246832E+02  0.16724143971E+02  0.29232353696E+02  0.17770000000E+01 0.  1.
</event>
<event>
 8    1  0.1798472E-005  0.1829074E+03  0.7546771E-02  0.1068131E+00
        -11   -1    0    0    0    0  0.00000000000E+00  0.00000000000E+00  0.18250000000E+03  0.18250000000E+03  0.00000000000E+00 0.  1.
         11   -1    0    0    0    0 -0.00000000000E+00 -0.00000000000E+00 -0.18250000000E+03  0.18250000000E+03  0.00000000000E+00 0. -1.
         23    2    1    2    0    0  0.67222350860E+02  0.91294014367E+02  0.11028955494E+03  0.18209264377E+03  0.90224738689E+02 0.  0.
         23    2    1    2    0    0 -0.67222350860E+02 -0.91294014367E+02 -0.11028955494E+03  0.18290735623E+03  0.91857898526E+02 0.  0.
        -11    1    4    4    0    0 -0.68907089731E+02 -0.29889967064E+02 -0.92098388244E+02  0.11884321715E+03  0.00000000000E+00 0. -1.
         11    1    4    4    0    0  0.16847388717E+01 -0.61404047304E+02 -0.18191166693E+02  0.64064139080E+02  0.00000000000E+00 0.  1.
        -15    1    3    3    0    0  0.32613075005E+02  0.34361286671E+02  0.10503162824E+03  0.11523502655E+03  0.17770000000E+01 0.  1.
         15    1    3    3    0    0  0.34609275855E+02  0.56932727697E+02  0.52579266940E+01  0.66857617220E+02  0.17770000000E+01 0. -1.
</event>
<event>
 8    1  0.1798472E-005  0.1834938E+03  0.7546771E-02  0.1067666E+00
        -11   -1    0    0    0    0  0.00000000000E+00  0.00000000000E+00  0.18250000000E+03  0.18250000000E+03  0.00000000000E+00 0.  1.
         11   -1    0    0    0    0 -0.00000000000E+00 -0.00000000000E+00 -0.18250000000E+03  0.18250000000E+03  0.00000000000E+00 0.  1.
         23    2    1    2    0    0  0.11053986034E+02 -0.76859320618E+02  0.13985374019E+03  0.18349381089E+03  0.89896408246E+02 0.  0.
         23    2    1    2    0    0 -0.11053986034E+02  0.76859320618E+02 -0.13985374019E+03  0.18150618911E+03  0.85766440205E+02 0.  0.
        -11    1    4    4    0    0 -0.47393826484E+02  0.36112002948E+02 -0.87519072432E+02  0.10587652991E+03  0.00000000000E+00 0.  1.
         11    1    4    4    0    0  0.36339840450E+02  0.40747317670E+02 -0.52334667762E+02  0.75629659203E+02  0.00000000000E+00 0.  1.
        -15    1    3    3    0    0 -0.25616452265E+02 -0.53623671412E+02  0.12350619745E+03  0.13707165754E+03  0.17770000000E+01 0.  1.
         15    1    3    3    0    0  0.36670438298E+02 -0.23235649206E+02  0.16347542742E+02  0.46422153351E+02  0.17770000000E+01 0. -1.
</event>
<event>
 8    1  0.1798472E-005  0.1843164E+03  0.7546771E-02  0.1067018E+00
        -11   -1    0    0    0    0  0.00000000000E+00  0.00000000000E+00  0.18250000000E+03  0.18250000000E+03  0.00000000000E+00 0.  1.
         11   -1    0    0    0    0 -0.00000000000E+00 -0.00000000000E+00 -0.18250000000E+03  0.18250000000E+03  0.00000000000E+00 0. -1.
         23    2    1    2    0    0 -0.10846603381E+03  0.10749790560E+02 -0.11731691685E+03  0.18431639297E+03  0.91262452579E+02 0.  0.
         23    2    1    2    0    0  0.10846603381E+03 -0.10749790560E+02  0.11731691685E+03  0.18068360703E+03  0.83683142778E+02 0.  0.
        -11    1    4    4    0    0  0.11505872529E+02  0.25130964063E+02  0.50548325646E+02  0.57611489158E+02  0.00000000000E+00 0. -1.
         11    1    4    4    0    0  0.96960161278E+02 -0.35880754623E+02  0.66768591201E+02  0.12307211788E+03  0.00000000000E+00 0.  1.
        -15    1    3    3    0    0 -0.23133070719E+02  0.44520552339E+02 -0.37257032660E+02  0.62517699519E+02  0.17770000000E+01 0.  1.
         15    1    3    3    0    0 -0.85332963088E+02 -0.33770761779E+02 -0.80059884187E+02  0.12179869345E+03  0.17770000000E+01 0. -1.
</event>
<event>
 8    1  0.1798472E-005  0.1828827E+03  0.7546771E-02  0.1068151E+00
        -11   -1    0    0    0    0  0.00000000000E+00  0.00000000000E+00  0.18250000000E+03  0.18250000000E+03  0.00000000000E+00 0.  1.
         11   -1    0    0    0    0 -0.00000000000E+00 -0.00000000000E+00 -0.18250000000E+03  0.18250000000E+03  0.00000000000E+00 0. -1.
         23    2    1    2    0    0  0.44353874463E+02  0.72466074327E+01  0.15090855522E+03  0.18211726607E+03  0.91506978221E+02 0.  0.
         23    2    1    2    0    0 -0.44353874463E+02 -0.72466074327E+01 -0.15090855522E+03  0.18288273393E+03  0.93021088096E+02 0.  0.
        -11    1    4    4    0    0 -0.28386230291E+02 -0.19609850476E+02 -0.15781323157E+03  0.16154052236E+03  0.00000000000E+00 0. -1.
         11    1    4    4    0    0 -0.15967644171E+02  0.12363243044E+02  0.69046763514E+01  0.21342211564E+02  0.00000000000E+00 0.  1.
        -15    1    3    3    0    0  0.21040663898E+02 -0.20951032025E+02  0.14109340853E+03  0.14419487834E+03  0.17770000000E+01 0.  1.
         15    1    3    3    0    0  0.23313210565E+02  0.28197639458E+02  0.98151466959E+01  0.37922387735E+02  0.17770000000E+01 0. -1.
</event>
<event>
 8    1  0.1798472E-005  0.1855883E+03  0.7546771E-02  0.1066023E+00
        -11   -1    0    0    0    0  0.00000000000E+00  0.00000000000E+00  0.18250000000E+03  0.18250000000E+03  0.00000000000E+00 0.  1.
         11   -1    0    0    0    0 -0.00000000000E+00 -0.00000000000E+00 -0.18250000000E+03  0.18250000000E+03  0.00000000000E+00 0. -1.
         23    2    1    2    0    0 -0.11364613134E+02  0.11643075689E+02 -0.15460313722E+03  0.18558831892E+03  0.10137148730E+03 0.  0.
         23    2    1    2    0    0  0.11364613134E+02 -0.11643075689E+02  0.15460313722E+03  0.17941168108E+03  0.89563975052E+02 0.  0.
        -11    1    4    4    0    0  0.42204906519E+02 -0.18882020714E+02  0.13367260662E+03  0.14144310022E+03  0.00000000000E+00 0.  1.
         11    1    4    4    0    0 -0.30840293385E+02  0.72389450249E+01  0.20930530601E+02  0.37968580858E+02  0.00000000000E+00 0. -1.
        -15    1    3    3    0    0  0.38797036266E+02 -0.18433685934E+02 -0.79518207996E+02  0.90395320299E+02  0.17770000000E+01 0.  1.
         15    1    3    3    0    0 -0.50161649401E+02  0.30076761624E+02 -0.75084929225E+02  0.95192998619E+02  0.17770000000E+01 0. -1.
</event>
<event>
 8    1  0.1798472E-005  0.1828838E+03  0.7546771E-02  0.1068150E+00
        -11   -1    0    0    0    0  0.00000000000E+00  0.00000000000E+00  0.18250000000E+03  0.18250000000E+03  0.00000000000E+00 0.  1.
         11   -1    0    0    0    0 -0.00000000000E+00 -0.00000000000E+00 -0.18250000000E+03  0.18250000000E+03  0.00000000000E+00 0. -1.
         23    2    1    2    0    0 -0.10251049761E+03  0.99111535548E+02  0.70376965480E+02  0.18211621110E+03  0.88780056745E+02 0.  0.
         23    2    1    2    0    0  0.10251049761E+03 -0.99111535548E+02 -0.70376965480E+02  0.18288378890E+03  0.90344144113E+02 0.  0.
        -11    1    4    4    0    0 -0.31122383849E+01  0.10613758650E+02  0.59141738735E+01  0.12542541730E+02  0.00000000000E+00 0.  1.
         11    1    4    4    0    0  0.10562273599E+03 -0.10972529420E+03 -0.76291139354E+02  0.17034124717E+03  0.00000000000E+00 0. -1.
        -15    1    3    3    0    0 -0.14014288516E+02  0.80131059078E+01  0.51130611050E+02  0.53647994038E+02  0.17770000000E+01 0.  1.
         15    1    3    3    0    0 -0.88496209090E+02  0.91098429641E+02  0.19246354430E+02  0.12846821706E+03  0.17770000000E+01 0. -1.
</event>
<event>
 8    1  0.1798472E-005  0.1839761E+03  0.7546771E-02  0.1067286E+00
        -11   -1    0    0    0    0  0.00000000000E+00  0.00000000000E+00  0.18250000000E+03  0.18250000000E+03  0.00000000000E+00 0. -1.
         11   -1    0    0    0    0 -0.00000000000E+00 -0.00000000000E+00 -0.18250000000E+03  0.18250000000E+03  0.00000000000E+00 0. -1.
         23    2    1    2    0    0 -0.29311397912E+02 -0.56372575018E+02 -0.14274867296E+03  0.18397609898E+03  0.97123612496E+02 0.  0.
         23    2    1    2    0    0  0.29311397912E+02  0.56372575018E+02  0.14274867296E+03  0.18102390102E+03  0.91408116965E+02 0.  0.
        -11    1    4    4    0    0  0.44871012781E+02  0.40868797635E+02  0.14665157092E+03  0.15871468004E+03  0.00000000000E+00 0. -1.
         11    1    4    4    0    0 -0.15559614869E+02  0.15503777383E+02 -0.39028979620E+01  0.22309220975E+02  0.00000000000E+00 0. -1.
        -15    1    3    3    0    0 -0.51778359093E+02 -0.67281561132E+02 -0.13148100650E+03  0.15651907148E+03  0.17770000000E+01 0. -1.
         15    1    3    3    0    0  0.22466961181E+02  0.10908986114E+02 -0.11267666457E+02  0.27457027500E+02  0.17770000000E+01 0.  1.
</event>
<event>
 8    1  0.1798472E-005  0.1852000E+03  0.7546771E-02  0.1066326E+00
        -11   -1    0    0    0    0  0.00000000000E+00  0.00000000000E+00  0.18250000000E+03  0.18250000000E+03  0.00000000000E+00 0.  1.
         11   -1    0    0    0    0 -0.00000000000E+00 -0.00000000000E+00 -0.18250000000E+03  0.18250000000E+03  0.00000000000E+00 0. -1.
         23    2    1    2    0    0  0.83790829087E+02  0.29555113691E+02 -0.12568819017E+03  0.18520000913E+03  0.10299084644E+03 0.  0.
         23    2    1    2    0    0 -0.83790829087E+02 -0.29555113691E+02  0.12568819017E+03  0.17979999087E+03  0.92930661148E+02 0.  0.
        -11    1    4    4    0    0 -0.49171404831E+02  0.29026503377E+02  0.37098559183E+02  0.68093083679E+02  0.00000000000E+00 0.  1.
         11    1    4    4    0    0 -0.34619424256E+02 -0.58581617068E+02  0.88589630991E+02  0.11170690719E+03  0.00000000000E+00 0. -1.
        -15    1    3    3    0    0  0.90793397475E+02  0.56089870058E+02 -0.86825355815E+02  0.13759111414E+03  0.17770000000E+01 0.  1.
         15    1    3    3    0    0 -0.70025683878E+01 -0.26534756366E+02 -0.38862834360E+02  0.47608894998E+02  0.17770000000E+01 0. -1.
</event>
<event>
 8    1  0.1798472E-005  0.1826350E+03  0.7546771E-02  0.1068347E+00
        -11   -1    0    0    0    0  0.00000000000E+00  0.00000000000E+00  0.18250000000E+03  0.18250000000E+03  0.00000000000E+00 0.  1.
         11   -1    0    0    0    0 -0.00000000000E+00 -0.00000000000E+00 -0.18250000000E+03  0.18250000000E+03  0.00000000000E+00 0. -1.
         23    2    1    2    0    0  0.13848370803E+03  0.14454776782E+01  0.77249423079E+02  0.18236497333E+03  0.90053780239E+02 0.  0.
         23    2    1    2    0    0 -0.13848370803E+03 -0.14454776782E+01 -0.77249423079E+02  0.18263502667E+03  0.90599408406E+02 0.  0.
        -11    1    4    4    0    0  0.29014829794E+01 -0.14327747853E+02  0.83695974982E+01  0.16844973265E+02  0.00000000000E+00 0.  1.
         11    1    4    4    0    0 -0.14138519101E+03  0.12882270175E+02 -0.85619020577E+02  0.16579005340E+03  0.00000000000E+00 0. -1.
        -15    1    3    3    0    0  0.83859820926E+02  0.28412603061E+00 -0.45256956649E+01  0.84001130609E+02  0.17770000000E+01 0.  1.
         15    1    3    3    0    0  0.54623887108E+02  0.11613516476E+01  0.81775118744E+02  0.98363842722E+02  0.17770000000E+01 0. -1.
</event>
<event>
 8    1  0.1798472E-005  0.1826063E+03  0.7546771E-02  0.1068370E+00
        -11   -1    0    0    0    0  0.00000000000E+00  0.00000000000E+00  0.18250000000E+03  0.18250000000E+03  0.00000000000E+00 0.  1.
         11   -1    0    0    0    0 -0.00000000000E+00 -0.00000000000E+00 -0.18250000000E+03  0.18250000000E+03  0.00000000000E+00 0. -1.
         23    2    1    2    0    0 -0.60997299895E+02  0.45657478968E+02 -0.13882569628E+03  0.18239371883E+03  0.90496512308E+02 0.  0.
         23    2    1    2    0    0  0.60997299895E+02 -0.45657478968E+02  0.13882569628E+03  0.18260628117E+03  0.90924166168E+02 0.  0.
        -11    1    4    4    0    0  0.72049484545E+02 -0.45508021605E+02  0.62994233538E+02  0.10597349533E+03  0.00000000000E+00 0. -1.
         11    1    4    4    0    0 -0.11052184650E+02 -0.14945736267E+00  0.75831462746E+02  0.76632785838E+02  0.00000000000E+00 0.  1.
        -15    1    3    3    0    0 -0.30649904022E+02  0.66558203955E+02 -0.12088600946E+03  0.14137183646E+03  0.17770000000E+01 0. -1.
         15    1    3    3    0    0 -0.30347395873E+02 -0.20900724987E+02 -0.17939686822E+02  0.41021882375E+02  0.17770000000E+01 0.  1.
</event>
<event>
 8    1  0.1798472E-005  0.1860115E+03  0.7546771E-02  0.1065694E+00
        -11   -1    0    0    0    0  0.00000000000E+00  0.00000000000E+00  0.18250000000E+03  0.18250000000E+03  0.00000000000E+00 0.  1.
         11   -1    0    0    0    0 -0.00000000000E+00 -0.00000000000E+00 -0.18250000000E+03  0.18250000000E+03  0.00000000000E+00 0. -1.
         23    2    1    2    0    0  0.21860152150E+01  0.17995469294E+02 -0.16114040588E+03  0.18601147874E+03  0.91134100315E+02 0.  0.
         23    2    1    2    0    0 -0.21860152150E+01 -0.17995469294E+02  0.16114040588E+03  0.17898852126E+03  0.75776280968E+02 0.  0.
        -11    1    4    4    0    0 -0.28972298250E+02  0.27783117064E+01  0.24009832090E+02  0.37730426963E+02  0.00000000000E+00 0. -1.
         11    1    4    4    0    0  0.26786283035E+02 -0.20773781001E+02  0.13713057379E+03  0.14125809429E+03  0.00000000000E+00 0.  1.
        -15    1    3    3    0    0 -0.24512298157E+02  0.27475688502E+02 -0.15167096208E+03  0.15608652949E+03  0.17770000000E+01 0. -1.
         15    1    3    3    0    0  0.26698313372E+02 -0.94802192077E+01 -0.94694437946E+01  0.29924949255E+02  0.17770000000E+01 0.  1.
</event>
<event>
 8    1  0.1798472E-005  0.1828891E+03  0.7546771E-02  0.1068145E+00
        -11   -1    0    0    0    0  0.00000000000E+00  0.00000000000E+00  0.18250000000E+03  0.18250000000E+03  0.00000000000E+00 0. -1.
         11   -1    0    0    0    0 -0.00000000000E+00 -0.00000000000E+00 -0.18250000000E+03  0.18250000000E+03  0.00000000000E+00 0.  1.
         23    2    1    2    0    0 -0.12296082213E+03  0.24435648458E+02  0.97110903144E+02  0.18288914546E+03  0.91112278675E+02 0.  0.
         23    2    1    2    0    0  0.12296082213E+03 -0.24435648458E+02 -0.97110903144E+02  0.18211085454E+03  0.89539774047E+02 0.  0.
        -11    1    4    4    0    0 -0.91498076786E+01 -0.33940194807E+01 -0.31760845759E+02  0.33226340035E+02  0.00000000000E+00 0. -1.
         11    1    4    4    0    0  0.13211062981E+03 -0.21041628978E+02 -0.65350057385E+02  0.14888451450E+03  0.00000000000E+00 0.  1.
        -15    1    3    3    0    0 -0.92551435177E+02 -0.16190406781E+02  0.92568142128E+02  0.13190874153E+03  0.17770000000E+01 0.  1.
         15    1    3    3    0    0 -0.30409386950E+02  0.40626055240E+02  0.45427610166E+01  0.50980403938E+02  0.17770000000E+01 0. -1.
</event>
<event>
 8    1  0.1798472E-005  0.1834722E+03  0.7546771E-02  0.1067684E+00
        -11   -1    0    0    0    0  0.00000000000E+00  0.00000000000E+00  0.18250000000E+03  0.18250000000E+03  0.00000000000E+00 0.  1.
         11   -1    0    0    0    0 -0.00000000000E+00 -0.00000000000E+00 -0.18250000000E+03  0.18250000000E+03  0.00000000000E+00 0.  1.
         23    2    1    2    0    0 -0.87062578880E+02  0.31403816894E+02  0.12654286355E+03  0.18152775676E+03  0.91504851254E+02 0.  0.
         23    2    1    2    0    0  0.87062578880E+02 -0.31403816894E+02 -0.12654286355E+03  0.18347224324E+03  0.95304120419E+02 0.  0.
        -11    1    4    4    0    0  0.45660056065E+01  0.29247607518E+02 -0.20135529631E+02  0.35800984711E+02  0.00000000000E+00 0.  1.
         11    1    4    4    0    0  0.82496573274E+02 -0.60651424412E+02 -0.10640733391E+03  0.14767125853E+03  0.00000000000E+00 0.  1.
        -15    1    3    3    0    0 -0.95326085254E+02  0.46848768416E+02  0.12471637722E+03  0.16382674418E+03  0.17770000000E+01 0.  1.
         15    1    3    3    0    0  0.82635063741E+01 -0.15444951522E+02  0.18264863258E+01  0.17701012582E+02  0.17770000000E+01 0. -1.
</event>
<event>
 8    1  0.1798472E-005  0.1854957E+03  0.7546771E-02  0.1066095E+00
        -11   -1    0    0    0    0  0.00000000000E+00  0.00000000000E+00  0.18250000000E+03  0.18250000000E+03  0.00000000000E+00 0.  1.
         11   -1    0    0    0    0 -0.00000000000E+00 -0.00000000000E+00 -0.18250000000E+03  0.18250000000E+03  0.00000000000E+00 0.  1.
         23    2    1    2    0    0  0.17041725404E+02  0.39132304125E+02  0.14915113293E+03  0.17950434532E+03  0.90299456833E+02 0.  0.
         23    2    1    2    0    0 -0.17041725404E+02 -0.39132304125E+02 -0.14915113293E+03  0.18549565468E+03  0.10168982162E+03 0.  0.
        -11    1    4    4    0    0  0.17821404111E+02 -0.36257524293E+02 -0.94631115799E+01  0.41494107932E+02  0.00000000000E+00 0.  1.
         11    1    4    4    0    0 -0.34863129514E+02 -0.28747798319E+01 -0.13968802135E+03  0.14400154675E+03  0.00000000000E+00 0.  1.
        -15    1    3    3    0    0  0.51008068449E+02  0.40587037776E+02  0.10722615197E+03  0.12549795249E+03  0.17770000000E+01 0.  1.
         15    1    3    3    0    0 -0.33966343045E+02 -0.14547336518E+01  0.41924980952E+02  0.54006392832E+02  0.17770000000E+01 0. -1.
</event>
<event>
 8    1  0.1798472E-005  0.1845414E+03  0.7546771E-02  0.1066841E+00
        -11   -1    0    0    0    0  0.00000000000E+00  0.00000000000E+00  0.18250000000E+03  0.18250000000E+03  0.00000000000E+00 0.  1.
         11   -1    0    0    0    0 -0.00000000000E+00 -0.00000000000E+00 -0.18250000000E+03  0.18250000000E+03  0.00000000000E+00 0. -1.
         23    2    1    2    0    0  0.45547793174E+01  0.12239096908E+03  0.10276230678E+03  0.18454139854E+03  0.92169087846E+02 0.  0.
         23    2    1    2    0    0 -0.45547793174E+01 -0.12239096908E+03 -0.10276230678E+03  0.18045860146E+03  0.83695399034E+02 0.  0.
        -11    1    4    4    0    0 -0.42318321239E+02 -0.63825712291E+02 -0.68763475472E+02  0.10292219110E+03  0.00000000000E+00 0. -1.
         11    1    4    4    0    0  0.37763541922E+02 -0.58565256787E+02 -0.33998831307E+02  0.77536410358E+02  0.00000000000E+00 0.  1.
        -15    1    3    3    0    0 -0.28340456983E+02  0.10138763102E+03  0.10026575397E+03  0.14539261458E+03  0.17770000000E+01 0.  1.
         15    1    3    3    0    0  0.32895236300E+02  0.21003338063E+02  0.24965528086E+01  0.39148783965E+02  0.17770000000E+01 0. -1.
</event>
<event>
 8    1  0.1798472E-005  0.1841051E+03  0.7546771E-02  0.1067184E+00
        -11   -1    0    0    0    0  0.00000000000E+00  0.00000000000E+00  0.18250000000E+03  0.18250000000E+03  0.00000000000E+00 0.  1.
         11   -1    0    0    0    0 -0.00000000000E+00 -0.00000000000E+00 -0.18250000000E+03  0.18250000000E+03  0.00000000000E+00 0. -1.
         23    2    1    2    0    0 -0.18933978534E+02  0.15517278724E+02 -0.15436231253E+03  0.18410511705E+03  0.97302050920E+02 0.  0.
         23    2    1    2    0    0  0.18933978534E+02 -0.15517278724E+02  0.15436231253E+03  0.18089488295E+03  0.91082125936E+02 0.  0.
        -11    1    4    4    0    0  0.37102135368E+02  0.14100903824E+02  0.24910171983E+02  0.46860650932E+02  0.00000000000E+00 0. -1.
         11    1    4    4    0    0 -0.18168156833E+02 -0.29618182547E+02  0.12945214055E+03  0.13403423202E+03  0.00000000000E+00 0.  1.
        -15    1    3    3    0    0  0.35801891522E+01  0.54068475475E+02 -0.99875904938E+02  0.11364229807E+03  0.17770000000E+01 0. -1.
         15    1    3    3    0    0 -0.22514167686E+02 -0.38551196751E+02 -0.54486407591E+02  0.70462818981E+02  0.17770000000E+01 0.  1.
</event>
<event>
 8    1  0.1798472E-005  0.1832201E+03  0.7546771E-02  0.1067883E+00
        -11   -1    0    0    0    0  0.00000000000E+00  0.00000000000E+00  0.18250000000E+03  0.18250000000E+03  0.00000000000E+00 0.  1.
         11   -1    0    0    0    0 -0.00000000000E+00 -0.00000000000E+00 -0.18250000000E+03  0.18250000000E+03  0.00000000000E+00 0. -1.
         23    2    1    2    0    0 -0.56856154674E+02 -0.36956285206E+02  0.14329684645E+03  0.18322006181E+03  0.91854316742E+02 0.  0.
         23    2    1    2    0    0  0.56856154674E+02  0.36956285206E+02 -0.14329684645E+03  0.18177993819E+03  0.88947008864E+02 0.  0.
        -11    1    4    4    0    0  0.37330170287E+02  0.48849166827E+02 -0.14632639908E+03  0.15871735186E+03  0.00000000000E+00 0. -1.
         11    1    4    4    0    0  0.19525984387E+02 -0.11892881621E+02  0.30295526232E+01  0.23062586338E+02  0.00000000000E+00 0.  1.
        -15    1    3    3    0    0 -0.10969049959E+02 -0.50177048459E+02  0.11897385241E+03  0.12959935006E+03  0.17770000000E+01 0.  1.
         15    1    3    3    0    0 -0.45887104715E+02  0.13220763253E+02  0.24322994041E+02  0.53620711747E+02  0.17770000000E+01 0. -1.
</event>
<event>
 8    1  0.1798472E-005  0.1829962E+03  0.7546771E-02  0.1068061E+00
        -11   -1    0    0    0    0  0.00000000000E+00  0.00000000000E+00  0.18250000000E+03  0.18250000000E+03  0.00000000000E+00 0. -1.
         11   -1    0    0    0    0 -0.00000000000E+00 -0.00000000000E+00 -0.18250000000E+03  0.18250000000E+03  0.00000000000E+00 0.  1.
         23    2    1    2    0    0 -0.34807508570E+02 -0.10076964090E+03  0.11529512184E+03  0.18200383610E+03  0.92012760286E+02 0.  0.
         23    2    1    2    0    0  0.34807508570E+02  0.10076964090E+03 -0.11529512184E+03  0.18299616390E+03  0.93960351746E+02 0.  0.
        -11    1    4    4    0    0  0.21651876346E+01  0.20670553626E+02 -0.90730636567E+02  0.93080654470E+02  0.00000000000E+00 0.  1.
         11    1    4    4    0    0  0.32642320936E+02  0.80099087278E+02 -0.24564485273E+02  0.89915509427E+02  0.00000000000E+00 0. -1.
        -15    1    3    3    0    0  0.21613485303E+02 -0.25217030857E+02  0.27409333124E+00  0.33260701261E+02  0.17770000000E+01 0.  1.
         15    1    3    3    0    0 -0.56420993874E+02 -0.75552610047E+02  0.11502102851E+03  0.14874313484E+03  0.17770000000E+01 0. -1.
</event>
<event>
 8    1  0.1798472E-005  0.1855262E+03  0.7546771E-02  0.1066071E+00
        -11   -1    0    0    0    0  0.00000000000E+00  0.00000000000E+00  0.18250000000E+03  0.18250000000E+03  0.00000000000E+00 0. -1.
         11   -1    0    0    0    0 -0.00000000000E+00 -0.00000000000E+00 -0.18250000000E+03  0.18250000000E+03  0.00000000000E+00 0.  1.
         23    2    1    2    0    0  0.61501299934E+02  0.28185141113E+02 -0.13895131992E+03  0.17947376925E+03  0.91249945035E+02 0.  0.
         23    2    1    2    0    0 -0.61501299934E+02 -0.28185141113E+02  0.13895131992E+03  0.18552623075E+03  0.10264356247E+03 0.  0.
        -11    1    4    4    0    0 -0.45941573198E+02 -0.48715055356E+02  0.29652649844E+02  0.73232946199E+02  0.00000000000E+00 0.  1.
         11    1    4    4    0    0 -0.15559726736E+02  0.20529914243E+02  0.10929867007E+03  0.11229328455E+03  0.00000000000E+00 0. -1.
        -15    1    3    3    0    0 -0.19077500735E+02  0.14069157271E+02 -0.64896888163E+02  0.69113356472E+02  0.17770000000E+01 0. -1.
         15    1    3    3    0    0  0.80578800669E+02  0.14115983842E+02 -0.74054431755E+02  0.11036041278E+03  0.17770000000E+01 0.  1.
</event>
<event>
 8    1  0.1798472E-005  0.1849513E+03  0.7546771E-02  0.1066520E+00
        -11   -1    0    0    0    0  0.00000000000E+00  0.00000000000E+00  0.18250000000E+03  0.18250000000E+03  0.00000000000E+00 0.  1.
         11   -1    0    0    0    0 -0.00000000000E+00 -0.00000000000E+00 -0.18250000000E+03  0.18250000000E+03  0.00000000000E+00 0. -1.
         23    2    1    2    0    0  0.10382294307E+03  0.96957220947E+02 -0.77920877232E+02  0.18495129012E+03  0.89193107395E+02 0.  0.
         23    2    1    2    0    0 -0.10382294307E+03 -0.96957220947E+02  0.77920877232E+02  0.18004870988E+03  0.78523681889E+02 0.  0.
        -11    1    4    4    0    0 -0.16505202689E+02 -0.16600363729E+02 -0.16300567677E+02  0.28525467539E+02  0.00000000000E+00 0. -1.
         11    1    4    4    0    0 -0.87317740386E+02 -0.80356857219E+02  0.94221444909E+02  0.15152324234E+03  0.00000000000E+00 0.  1.
        -15    1    3    3    0    0  0.11666004651E+02  0.56275305533E+01  0.18949714932E+02  0.23022037044E+02  0.17770000000E+01 0.  1.
         15    1    3    3    0    0  0.92156938424E+02  0.91329690394E+02 -0.96870592165E+02  0.16192925308E+03  0.17770000000E+01 0. -1.
</event>
<event>
 8    1  0.1798472E-005  0.1827273E+03  0.7546771E-02  0.1068274E+00
        -11   -1    0    0    0    0  0.00000000000E+00  0.00000000000E+00  0.18250000000E+03  0.18250000000E+03  0.00000000000E+00 0.  1.
         11   -1    0    0    0    0 -0.00000000000E+00 -0.00000000000E+00 -0.18250000000E+03  0.18250000000E+03  0.00000000000E+00 0. -1.
         23    2    1    2    0    0 -0.50444860548E+02 -0.53675268498E+02  0.14009583199E+03  0.18272728241E+03  0.91305526630E+02 0.  0.
         23    2    1    2    0    0  0.50444860548E+02  0.53675268498E+02 -0.14009583199E+03  0.18227271759E+03  0.90392383703E+02 0.  0.
        -11    1    4    4    0    0  0.38178995208E+02 -0.19108618870E+02 -0.55005725662E+02  0.69630487905E+02  0.00000000000E+00 0.  1.
         11    1    4    4    0    0  0.12265865340E+02  0.72783887368E+02 -0.85090106327E+02  0.11264222968E+03  0.00000000000E+00 0. -1.
        -15    1    3    3    0    0 -0.32261763602E+02 -0.72943351593E+02  0.64460087656E+02  0.10256614725E+03  0.17770000000E+01 0.  1.
         15    1    3    3    0    0 -0.18183096946E+02  0.19268083094E+02  0.75635744333E+02  0.80161135163E+02  0.17770000000E+01 0. -1.
</event>
<event>
 8    1  0.1798472E-005  0.1835159E+03  0.7546771E-02  0.1067649E+00
        -11   -1    0    0    0    0  0.00000000000E+00  0.00000000000E+00  0.18250000000E+03  0.18250000000E+03  0.00000000000E+00 0.  1.
         11   -1    0    0    0    0 -0.00000000000E+00 -0.00000000000E+00 -0.18250000000E+03  0.18250000000E+03  0.00000000000E+00 0. -1.
         23    2    1    2    0    0 -0.13890190467E+02 -0.52955813671E+02 -0.14848257176E+03  0.18351587157E+03  0.92917949881E+02 0.  0.
         23    2    1    2    0    0  0.13890190467E+02  0.52955813671E+02  0.14848257176E+03  0.18148412843E+03  0.88837825068E+02 0.  0.
        -11    1    4    4    0    0  0.52602629763E+01  0.76526185339E+02  0.12737321098E+03  0.14868712885E+03  0.00000000000E+00 0.  1.
         11    1    4    4    0    0  0.86299274906E+01 -0.23570371669E+02  0.21109360777E+02  0.32796999581E+02  0.00000000000E+00 0. -1.
        -15    1    3    3    0    0 -0.37518139752E+02 -0.21368940184E+02 -0.13506910561E+03  0.14181348115E+03  0.17770000000E+01 0.  1.
         15    1    3    3    0    0  0.23627949285E+02 -0.31586873487E+02 -0.13413466145E+02  0.41702390424E+02  0.17770000000E+01 0. -1.
</event>
<event>
 8    1  0.1798472E-005  0.1854052E+03  0.7546771E-02  0.1066166E+00
        -11   -1    0    0    0    0  0.00000000000E+00  0.00000000000E+00  0.18250000000E+03  0.18250000000E+03  0.00000000000E+00 0.  1.
         11   -1    0    0    0    0 -0.00000000000E+00 -0.00000000000E+00 -0.18250000000E+03  0.18250000000E+03  0.00000000000E+00 0. -1.
         23    2    1    2    0    0 -0.75235105850E+02 -0.77438512573E+02 -0.11456379105E+03  0.17959480216E+03  0.86442965940E+02 0.  0.
         23    2    1    2    0    0  0.75235105850E+02  0.77438512573E+02  0.11456379105E+03  0.18540519784E+03  0.97944784368E+02 0.  0.
        -11    1    4    4    0    0  0.73904948136E+02  0.40398110257E+02  0.12135960125E+03  0.14772305672E+03  0.00000000000E+00 0.  1.
         11    1    4    4    0    0  0.13301577143E+01  0.37040402316E+02 -0.67958101976E+01  0.37682141122E+02  0.00000000000E+00 0. -1.
        -15    1    3    3    0    0 -0.55502777999E+02 -0.45968561313E+02 -0.12196655606E+03  0.14167803471E+03  0.17770000000E+01 0. -1.
         15    1    3    3    0    0 -0.19732327851E+02 -0.31469951260E+02  0.74027650059E+01  0.37916767445E+02  0.17770000000E+01 0.  1.
</event>
<event>
 8    1  0.1798472E-005  0.1830212E+03  0.7546771E-02  0.1068041E+00
        -11   -1    0    0    0    0  0.00000000000E+00  0.00000000000E+00  0.18250000000E+03  0.18250000000E+03  0.00000000000E+00 0.  1.
         11   -1    0    0    0    0 -0.00000000000E+00 -0.00000000000E+00 -0.18250000000E+03  0.18250000000E+03  0.00000000000E+00 0. -1.
         23    2    1    2    0    0  0.64090108551E+02  0.60268529389E+02 -0.13233764834E+03  0.18197884653E+03  0.88674741430E+02 0.  0.
         23    2    1    2    0    0 -0.64090108551E+02 -0.60268529389E+02  0.13233764834E+03  0.18302115347E+03  0.90794558198E+02 0.  0.
        -11    1    4    4    0    0 -0.69070211038E+02 -0.80206493843E+02  0.10939551896E+03  0.15222074522E+03  0.00000000000E+00 0.  1.
         11    1    4    4    0    0  0.49801024868E+01  0.19937964455E+02  0.22942129380E+02  0.30800408242E+02  0.00000000000E+00 0. -1.
        -15    1    3    3    0    0  0.35736375393E+02  0.37656725091E+02 -0.13590562979E+03  0.14549438274E+03  0.17770000000E+01 0. -1.
         15    1    3    3    0    0  0.28353733158E+02  0.22611804297E+02  0.35679814490E+01  0.36484463792E+02  0.17770000000E+01 0.  1.
</event>
<event>
 8    1  0.1798472E-005  0.1828898E+03  0.7546771E-02  0.1068145E+00
        -11   -1    0    0    0    0  0.00000000000E+00  0.00000000000E+00  0.18250000000E+03  0.18250000000E+03  0.00000000000E+00 0.  1.
         11   -1    0    0    0    0 -0.00000000000E+00 -0.00000000000E+00 -0.18250000000E+03  0.18250000000E+03  0.00000000000E+00 0. -1.
         23    2    1    2    0    0 -0.12899252900E+03  0.77100731390E+02 -0.48924880876E+02  0.18288984778E+03  0.92040518978E+02 0.  0.
         23    2    1    2    0    0  0.12899252900E+03 -0.77100731390E+02  0.48924880876E+02  0.18211015222E+03  0.90481314393E+02 0.  0.
        -11    1    4    4    0    0  0.12771274412E+03 -0.50505474817E+02  0.63995481130E+02  0.15151491544E+03  0.00000000000E+00 0.  1.
         11    1    4    4    0    0  0.12797848838E+01 -0.26595256573E+02 -0.15070600254E+02  0.30595236779E+02  0.00000000000E+00 0. -1.
        -15    1    3    3    0    0  0.51528307871E+01  0.16225665970E+02 -0.29752865277E+02  0.34325131063E+02  0.17770000000E+01 0.  1.
         15    1    3    3    0    0 -0.13414535979E+03  0.60875065420E+02 -0.19172015600E+02  0.14856471672E+03  0.17770000000E+01 0. -1.
</event>
<event>
 8    1  0.1798472E-005  0.1834791E+03  0.7546771E-02  0.1067678E+00
        -11   -1    0    0    0    0  0.00000000000E+00  0.00000000000E+00  0.18250000000E+03  0.18250000000E+03  0.00000000000E+00 0.  1.
         11   -1    0    0    0    0 -0.00000000000E+00 -0.00000000000E+00 -0.18250000000E+03  0.18250000000E+03  0.00000000000E+00 0. -1.
         23    2    1    2    0    0  0.12563881828E+03 -0.20808467276E+02  0.95448516523E+02  0.18347907258E+03  0.91301948503E+02 0.  0.
         23    2    1    2    0    0 -0.12563881828E+03  0.20808467276E+02 -0.95448516523E+02  0.18152092742E+03  0.87300187955E+02 0.  0.
        -11    1    4    4    0    0 -0.10696345077E+03 -0.12476618136E+02 -0.41437796103E+02  0.11538603358E+03  0.00000000000E+00 0.  1.
         11    1    4    4    0    0 -0.18675367507E+02  0.33285085411E+02 -0.54010720420E+02  0.66134893835E+02  0.00000000000E+00 0. -1.
        -15    1    3    3    0    0  0.13476280677E+03 -0.32319823601E+02  0.96125326026E+02  0.16866778329E+03  0.17770000000E+01 0.  1.
         15    1    3    3    0    0 -0.91239884932E+01  0.11511356326E+02 -0.67680950288E+00  0.14811289295E+02  0.17770000000E+01 0. -1.
</event>
<event>
 8    1  0.1798472E-005  0.1831724E+03  0.7546771E-02  0.1067921E+00
        -11   -1    0    0    0    0  0.00000000000E+00  0.00000000000E+00  0.18250000000E+03  0.18250000000E+03  0.00000000000E+00 0.  1.
         11   -1    0    0    0    0 -0.00000000000E+00 -0.00000000000E+00 -0.18250000000E+03  0.18250000000E+03  0.00000000000E+00 0. -1.
         23    2    1    2    0    0  0.37689144150E+02  0.39285284615E+02  0.14737995028E+03  0.18317242301E+03  0.94167306587E+02 0.  0.
         23    2    1    2    0    0 -0.37689144150E+02 -0.39285284615E+02 -0.14737995028E+03  0.18182757699E+03  0.91523837529E+02 0.  0.
        -11    1    4    4    0    0 -0.58447728713E+02 -0.12041373496E+02 -0.13080958143E+03  0.14377857372E+03  0.00000000000E+00 0.  1.
         11    1    4    4    0    0  0.20758584562E+02 -0.27243911119E+02 -0.16570368852E+02  0.38049003272E+02  0.00000000000E+00 0. -1.
        -15    1    3    3    0    0 -0.79545476926E+01 -0.83344759912E+00  0.11306552726E+03  0.11336198943E+03  0.17770000000E+01 0.  1.
         15    1    3    3    0    0  0.45643691843E+02  0.40118732214E+02  0.34314423023E+02  0.69810433575E+02  0.17770000000E+01 0. -1.
</event>
<event>
 8    1  0.1798472E-005  0.1834168E+03  0.7546771E-02  0.1067727E+00
        -11   -1    0    0    0    0  0.00000000000E+00  0.00000000000E+00  0.18250000000E+03  0.18250000000E+03  0.00000000000E+00 0.  1.
         11   -1    0    0    0    0 -0.00000000000E+00 -0.00000000000E+00 -0.18250000000E+03  0.18250000000E+03  0.00000000000E+00 0. -1.
         23    2    1    2    0    0 -0.14854301853E+02  0.27441518439E+02  0.15530483775E+03  0.18158321516E+03  0.88764768811E+02 0.  0.
         23    2    1    2    0    0  0.14854301853E+02 -0.27441518439E+02 -0.15530483775E+03  0.18341678484E+03  0.92457758534E+02 0.  0.
        -11    1    4    4    0    0 -0.36002926703E+01 -0.32903372265E+02 -0.16017910708E+03  0.16356326103E+03  0.00000000000E+00 0. -1.
         11    1    4    4    0    0  0.18454594523E+02  0.54618538259E+01  0.48742693254E+01  0.19853523810E+02  0.00000000000E+00 0.  1.
        -15    1    3    3    0    0 -0.14118172717E+02 -0.30334984363E+02  0.37044176110E+02  0.49949602499E+02  0.17770000000E+01 0. -1.
         15    1    3    3    0    0 -0.73612913573E+00  0.57776502802E+02  0.11826066164E+03  0.13163361266E+03  0.17770000000E+01 0.  1.
</event>
<event>
 8    1  0.1798472E-005  0.1839770E+03  0.7546771E-02  0.1067285E+00
        -11   -1    0    0    0    0  0.00000000000E+00  0.00000000000E+00  0.18250000000E+03  0.18250000000E+03  0.00000000000E+00 0.  1.
         11   -1    0    0    0    0 -0.00000000000E+00 -0.00000000000E+00 -0.18250000000E+03  0.18250000000E+03  0.00000000000E+00 0. -1.
         23    2    1    2    0    0 -0.25576211156E+02 -0.15235201508E+03  0.22416071448E+02  0.18397697347E+03  0.97364097238E+02 0.  0.
         23    2    1    2    0    0  0.25576211156E+02  0.15235201508E+03 -0.22416071448E+02  0.18102302653E+03  0.91660115651E+02 0.  0.
        -11    1    4    4    0    0  0.12464556592E+02  0.26712814262E+02  0.31974828037E+02  0.43489415319E+02  0.00000000000E+00 0.  1.
         11    1    4    4    0    0  0.13111654564E+02  0.12563920082E+03 -0.54390899485E+02  0.13753361122E+03  0.00000000000E+00 0. -1.
        -15    1    3    3    0    0  0.17789456529E+02 -0.61986259785E+02  0.48123877110E+02  0.80484945442E+02  0.17770000000E+01 0.  1.
         15    1    3    3    0    0 -0.43365667685E+02 -0.90365755293E+02 -0.25707805662E+02  0.10349202802E+03  0.17770000000E+01 0. -1.
</event>
<event>
 8    1  0.1798472E-005  0.1827350E+03  0.7546771E-02  0.1068268E+00
        -11   -1    0    0    0    0  0.00000000000E+00  0.00000000000E+00  0.18250000000E+03  0.18250000000E+03  0.00000000000E+00 0.  1.
         11   -1    0    0    0    0 -0.00000000000E+00 -0.00000000000E+00 -0.18250000000E+03  0.18250000000E+03  0.00000000000E+00 0. -1.
         23    2    1    2    0    0  0.14313284891E+02 -0.85906241442E+01  0.15657568820E+03  0.18226498984E+03  0.91792763533E+02 0.  0.
         23    2    1    2    0    0 -0.14313284891E+02  0.85906241442E+01 -0.15657568820E+03  0.18273501016E+03  0.92722536932E+02 0.  0.
        -11    1    4    4    0    0 -0.36330918951E+02  0.41147480030E+02 -0.89428798818E+02  0.10493121958E+03  0.00000000000E+00 0. -1.
         11    1    4    4    0    0  0.22017634060E+02 -0.32556855886E+02 -0.67146889384E+02  0.77803790581E+02  0.00000000000E+00 0.  1.
        -15    1    3    3    0    0 -0.27793079922E+02  0.24915925664E+01  0.12591637036E+03  0.12898353918E+03  0.17770000000E+01 0.  1.
         15    1    3    3    0    0  0.42106364813E+02 -0.11082216711E+02  0.30659317844E+02  0.53281450662E+02  0.17770000000E+01 0. -1.
</event>
<event>
 8    1  0.1798472E-005  0.1826759E+03  0.7546771E-02  0.1068315E+00
        -11   -1    0    0    0    0  0.00000000000E+00  0.00000000000E+00  0.18250000000E+03  0.18250000000E+03  0.00000000000E+00 0. -1.
         11   -1    0    0    0    0 -0.00000000000E+00 -0.00000000000E+00 -0.18250000000E+03  0.18250000000E+03  0.00000000000E+00 0.  1.
         23    2    1    2    0    0 -0.11849939352E+03  0.23056598710E+02 -0.10217107577E+03  0.18232408980E+03  0.90716216789E+02 0.  0.
         23    2    1    2    0    0  0.11849939352E+03 -0.23056598710E+02  0.10217107577E+03  0.18267591020E+03  0.91421258130E+02 0.  0.
        -11    1    4    4    0    0  0.47385370499E+02  0.37883808480E+01  0.95120549260E+02  0.10633740667E+03  0.00000000000E+00 0. -1.
         11    1    4    4    0    0  0.71114023017E+02 -0.26844979558E+02  0.70505265061E+01  0.76338503530E+02  0.00000000000E+00 0.  1.
        -15    1    3    3    0    0 -0.95798273189E+02 -0.14124165711E+02 -0.36504352018E+02  0.10350133646E+03  0.17770000000E+01 0.  1.
         15    1    3    3    0    0 -0.22701120327E+02  0.37180764421E+02 -0.65666723748E+02  0.78822753338E+02  0.17770000000E+01 0. -1.
</event>
<event>
 8    1  0.1798472E-005  0.1829176E+03  0.7546771E-02  0.1068123E+00
        -11   -1    0    0    0    0  0.00000000000E+00  0.00000000000E+00  0.18250000000E+03  0.18250000000E+03  0.00000000000E+00 0.  1.
         11   -1    0    0    0    0 -0.00000000000E+00 -0.00000000000E+00 -0.18250000000E+03  0.18250000000E+03  0.00000000000E+00 0. -1.
         23    2    1    2    0    0 -0.29540770410E+02 -0.10816235266E+03 -0.11056419420E+03  0.18291759630E+03  0.93073381524E+02 0.  0.
         23    2    1    2    0    0  0.29540770410E+02  0.10816235266E+03  0.11056419420E+03  0.18208240370E+03  0.91421053635E+02 0.  0.
        -11    1    4    4    0    0  0.51060198780E+02  0.77604549206E+02  0.11095107865E+03  0.14470574215E+03  0.00000000000E+00 0.  1.
         11    1    4    4    0    0 -0.21519428370E+02  0.30557803451E+02 -0.38688444550E+00  0.37376661551E+02  0.00000000000E+00 0. -1.
        -15    1    3    3    0    0 -0.10350245313E+02 -0.45237734760E+02  0.81806859160E+01  0.47155716252E+02  0.17770000000E+01 0.  1.
         15    1    3    3    0    0 -0.19190525097E+02 -0.62924617897E+02 -0.11874488012E+03  0.13576188005E+03  0.17770000000E+01 0. -1.
</event>
<event>
 8    1  0.1798472E-005  0.1825310E+03  0.7546771E-02  0.1068430E+00
        -11   -1    0    0    0    0  0.00000000000E+00  0.00000000000E+00  0.18250000000E+03  0.18250000000E+03  0.00000000000E+00 0.  1.
         11   -1    0    0    0    0 -0.00000000000E+00 -0.00000000000E+00 -0.18250000000E+03  0.18250000000E+03  0.00000000000E+00 0. -1.
         23    2    1    2    0    0 -0.13888056863E+03  0.73038587066E+02  0.18334395821E+02  0.18253097609E+03  0.91427346111E+02 0.  0.
         23    2    1    2    0    0  0.13888056863E+03 -0.73038587066E+02 -0.18334395821E+02  0.18246902391E+03  0.91303598359E+02 0.  0.
        -11    1    4    4    0    0  0.46535077710E+02 -0.64669736242E+02 -0.37065161008E+02  0.87872148054E+02  0.00000000000E+00 0.  1.
         11    1    4    4    0    0  0.92345490922E+02 -0.83688508245E+01  0.18730765188E+02  0.94596875859E+02  0.00000000000E+00 0. -1.
        -15    1    3    3    0    0 -0.45260739862E+02  0.62531238329E+02  0.38337410198E+02  0.86206757795E+02  0.17770000000E+01 0.  1.
         15    1    3    3    0    0 -0.93619828770E+02  0.10507348738E+02 -0.20003014377E+02  0.96324218293E+02  0.17770000000E+01 0. -1.
</event>
<event>
 8    1  0.1798472E-005  0.1850005E+03  0.7546771E-02  0.1066482E+00
        -11   -1    0    0    0    0  0.00000000000E+00  0.00000000000E+00  0.18250000000E+03  0.18250000000E+03  0.00000000000E+00 0.  1.
         11   -1    0    0    0    0 -0.00000000000E+00 -0.00000000000E+00 -0.18250000000E+03  0.18250000000E+03  0.00000000000E+00 0. -1.
         23    2    1    2    0    0 -0.64006885334E+01 -0.77191073849E+01  0.16109993681E+03  0.17999946414E+03  0.79662186893E+02 0.  0.
         23    2    1    2    0    0  0.64006885334E+01  0.77191073849E+01 -0.16109993681E+03  0.18500053586E+03  0.90396101665E+02 0.  0.
        -11    1    4    4    0    0 -0.38582250548E+02 -0.36296562897E+01 -0.10661941122E+03  0.11344365699E+03  0.00000000000E+00 0. -1.
         11    1    4    4    0    0  0.44982939081E+02  0.11348763675E+02 -0.54480525587E+02  0.71556878869E+02  0.00000000000E+00 0.  1.
        -15    1    3    3    0    0 -0.32709885556E+02  0.13217069761E+02  0.35953242408E+02  0.50402588375E+02  0.17770000000E+01 0. -1.
         15    1    3    3    0    0  0.26309197023E+02 -0.20936177146E+02  0.12514669440E+03  0.12959687577E+03  0.17770000000E+01 0.  1.
</event>
<event>
 7    1  0.1798472E-005  0.2050153E+03  0.7546771E-02  0.1051823E+00
        -11   -1    0    0    0    0  0.00000000000E+00  0.00000000000E+00  0.18250000000E+03  0.18250000000E+03  0.00000000000E+00 0.  1.
         11   -1    0    0    0    0 -0.00000000000E+00 -0.00000000000E+00 -0.18250000000E+03  0.18250000000E+03  0.00000000000E+00 0. -1.
         23    2    1    2    0    0  0.76397438759E+02  0.15314950010E+02 -0.10189319570E+03  0.15998469447E+03  0.95612566070E+02 0.  0.
        -11    1    3    3    0    0 -0.16494161725E+02 -0.59339259772E+01 -0.46658979043E+02  0.49843045391E+02  0.00000000000E+00 0.  1.
         11    1    3    3    0    0  0.92891600484E+02  0.21248875988E+02 -0.55234216659E+02  0.11014164908E+03  0.00000000000E+00 0. -1.
        -15    1    1    2    0    0  0.13813934441E+02 -0.69681758366E+02  0.54243884941E+02  0.89397589544E+02  0.17770000000E+01 0.  1.
         15    1    1    2    0    0 -0.90211373200E+02  0.54366808356E+02  0.47649310762E+02  0.11561771599E+03  0.17770000000E+01 0. -1.
</event>
<event>
 8    1  0.1798472E-005  0.1831151E+03  0.7546771E-02  0.1067966E+00
        -11   -1    0    0    0    0  0.00000000000E+00  0.00000000000E+00  0.18250000000E+03  0.18250000000E+03  0.00000000000E+00 0.  1.
         11   -1    0    0    0    0 -0.00000000000E+00 -0.00000000000E+00 -0.18250000000E+03  0.18250000000E+03  0.00000000000E+00 0. -1.
         23    2    1    2    0    0 -0.41407881446E+02  0.12153646883E+03  0.93500543120E+02  0.18311512275E+03  0.91121186972E+02 0.  0.
         23    2    1    2    0    0  0.41407881446E+02 -0.12153646883E+03 -0.93500543120E+02  0.18188487725E+03  0.88622971653E+02 0.  0.
        -11    1    4    4    0    0  0.62327321718E+02 -0.52966699654E+02 -0.66002101530E+02  0.10510206331E+03  0.00000000000E+00 0.  1.
         11    1    4    4    0    0 -0.20919440272E+02 -0.68569769180E+02 -0.27498441589E+02  0.76782813940E+02  0.00000000000E+00 0. -1.
        -15    1    3    3    0    0 -0.68167865503E+02  0.10383791627E+03  0.82611581818E+02  0.14918780755E+03  0.17770000000E+01 0.  1.
         15    1    3    3    0    0  0.26759984057E+02  0.17698552562E+02  0.10888961302E+02  0.33927315201E+02  0.17770000000E+01 0. -1.
</event>
<event>
 8    1  0.1798472E-005  0.1826885E+03  0.7546771E-02  0.1068305E+00
        -11   -1    0    0    0    0  0.00000000000E+00  0.00000000000E+00  0.18250000000E+03  0.18250000000E+03  0.00000000000E+00 0.  1.
         11   -1    0    0    0    0 -0.00000000000E+00 -0.00000000000E+00 -0.18250000000E+03  0.18250000000E+03  0.00000000000E+00 0. -1.
         23    2    1    2    0    0  0.33000733982E+02  0.88732114259E+02  0.12781069153E+03  0.18231154054E+03  0.89103806879E+02 0.  0.
         23    2    1    2    0    0 -0.33000733982E+02 -0.88732114259E+02 -0.12781069153E+03  0.18268845946E+03  0.89872486356E+02 0.  0.
        -11    1    4    4    0    0  0.25729556141E+02 -0.24324411263E+01 -0.30510848223E+02  0.39985480969E+02  0.00000000000E+00 0.  1.
         11    1    4    4    0    0 -0.58730290123E+02 -0.86299673133E+02 -0.97299843312E+02  0.14270297849E+03  0.00000000000E+00 0. -1.
        -15    1    3    3    0    0  0.31507351541E+02  0.98489880409E+02  0.72999283196E+02  0.12658997915E+03  0.17770000000E+01 0.  1.
         15    1    3    3    0    0  0.14933824416E+01 -0.97577661502E+01  0.54811408339E+02  0.55721561397E+02  0.17770000000E+01 0. -1.
</event>
<event>
 8    1  0.1798472E-005  0.1877094E+03  0.7546771E-02  0.1064382E+00
        -11   -1    0    0    0    0  0.00000000000E+00  0.00000000000E+00  0.18250000000E+03  0.18250000000E+03  0.00000000000E+00 0. -1.
         11   -1    0    0    0    0 -0.00000000000E+00 -0.00000000000E+00 -0.18250000000E+03  0.18250000000E+03  0.00000000000E+00 0.  1.
         23    2    1    2    0    0  0.28405633283E+02  0.36467255957E+02  0.15748547727E+03  0.18770942993E+03  0.91084651694E+02 0.  0.
         23    2    1    2    0    0 -0.28405633283E+02 -0.36467255957E+02 -0.15748547727E+03  0.17729057007E+03  0.67033796911E+02 0.  0.
        -11    1    4    4    0    0 -0.88551259238E+01 -0.52552237142E+02 -0.12656667597E+03  0.13732907321E+03  0.00000000000E+00 0.  1.
         11    1    4    4    0    0 -0.19550507359E+02  0.16084981186E+02 -0.30918801299E+02  0.39961496862E+02  0.00000000000E+00 0. -1.
        -15    1    3    3    0    0  0.48734576717E+00  0.42348121308E+02  0.19259423151E+02  0.46558393372E+02  0.17770000000E+01 0.  1.
         15    1    3    3    0    0  0.27918287516E+02 -0.58808653517E+01  0.13822605412E+03  0.14115103655E+03  0.17770000000E+01 0. -1.
</event>
<event>
 8    1  0.1798472E-005  0.1825460E+03  0.7546771E-02  0.1068418E+00
        -11   -1    0    0    0    0  0.00000000000E+00  0.00000000000E+00  0.18250000000E+03  0.18250000000E+03  0.00000000000E+00 0. -1.
         11   -1    0    0    0    0 -0.00000000000E+00 -0.00000000000E+00 -0.18250000000E+03  0.18250000000E+03  0.00000000000E+00 0.  1.
         23    2    1    2    0    0 -0.61697803370E+02 -0.89526331523E+02  0.11521594152E+03  0.18254603012E+03  0.90701471617E+02 0.  0.
         23    2    1    2    0    0  0.61697803370E+02  0.89526331523E+02 -0.11521594152E+03  0.18245396988E+03  0.90516048123E+02 0.  0.
        -11    1    4    4    0    0  0.58205908330E+02  0.13059308530E+02 -0.26485696687E+02  0.65268410681E+02  0.00000000000E+00 0. -1.
         11    1    4    4    0    0  0.34918950403E+01  0.76467022994E+02 -0.88730244837E+02  0.11718555920E+03  0.00000000000E+00 0.  1.
        -15    1    3    3    0    0 -0.61552211479E+02 -0.37054473364E+02  0.10774659005E+03  0.12951522741E+03  0.17770000000E+01 0. -1.
         15    1    3    3    0    0 -0.14559189123E+00 -0.52471858159E+02  0.74693514772E+01  0.53030802711E+02  0.17770000000E+01 0.  1.
</event>
<event>
 8    1  0.1798472E-005  0.1825805E+03  0.7546771E-02  0.1068391E+00
        -11   -1    0    0    0    0  0.00000000000E+00  0.00000000000E+00  0.18250000000E+03  0.18250000000E+03  0.00000000000E+00 0.  1.
         11   -1    0    0    0    0 -0.00000000000E+00 -0.00000000000E+00 -0.18250000000E+03  0.18250000000E+03  0.00000000000E+00 0. -1.
         23    2    1    2    0    0  0.52976733849E+02 -0.21116361469E+02 -0.14697550305E+03  0.18241953501E+03  0.91775014052E+02 0.  0.
         23    2    1    2    0    0 -0.52976733849E+02  0.21116361469E+02  0.14697550305E+03  0.18258046499E+03  0.92094476754E+02 0.  0.
        -11    1    4    4    0    0  0.46952918732E+01  0.44415508051E+02  0.47013459073E+02  0.64846344965E+02  0.00000000000E+00 0. -1.
         11    1    4    4    0    0 -0.57672025723E+02 -0.23299146583E+02  0.99962043978E+02  0.11773412003E+03  0.00000000000E+00 0.  1.
        -15    1    3    3    0    0  0.42768397126E+02 -0.34783566405E+02 -0.27338859919E+02  0.61559753698E+02  0.17770000000E+01 0.  1.
         15    1    3    3    0    0  0.10208336723E+02  0.13667204936E+02 -0.11963664313E+03  0.12085978131E+03  0.17770000000E+01 0. -1.
</event>
<event>
 8    1  0.1798472E-005  0.1825144E+03  0.7546771E-02  0.1068443E+00
        -11   -1    0    0    0    0  0.00000000000E+00  0.00000000000E+00  0.18250000000E+03  0.18250000000E+03  0.00000000000E+00 0. -1.
         11   -1    0    0    0    0 -0.00000000000E+00 -0.00000000000E+00 -0.18250000000E+03  0.18250000000E+03  0.00000000000E+00 0.  1.
         23    2    1    2    0    0  0.32801310548E+02  0.50690522939E+01 -0.15508516855E+03  0.18251441233E+03  0.90324304262E+02 0.  0.
         23    2    1    2    0    0 -0.32801310548E+02 -0.50690522939E+01  0.15508516855E+03  0.18248558767E+03  0.90266045315E+02 0.  0.
        -11    1    4    4    0    0  0.24564050598E+02 -0.79633430438E+01  0.12343997020E+02  0.28621350015E+02  0.00000000000E+00 0.  1.
         11    1    4    4    0    0 -0.57365361146E+02  0.28942907499E+01  0.14274117153E+03  0.15386423765E+03  0.00000000000E+00 0. -1.
        -15    1    3    3    0    0  0.39385160352E+02 -0.23268932011E+02 -0.14437932697E+03  0.15146346701E+03  0.17770000000E+01 0.  1.
         15    1    3    3    0    0 -0.65838498047E+01  0.28337984305E+02 -0.10705841582E+02  0.31050945327E+02  0.17770000000E+01 0. -1.
</event>
<event>
 8    1  0.1798472E-005  0.1855394E+03  0.7546771E-02  0.1066061E+00
        -11   -1    0    0    0    0  0.00000000000E+00  0.00000000000E+00  0.18250000000E+03  0.18250000000E+03  0.00000000000E+00 0.  1.
         11   -1    0    0    0    0 -0.00000000000E+00 -0.00000000000E+00 -0.18250000000E+03  0.18250000000E+03  0.00000000000E+00 0. -1.
         23    2    1    2    0    0 -0.91339452276E+02  0.12966135602E+03  0.30440651424E+02  0.18553941048E+03  0.91341539265E+02 0.  0.
         23    2    1    2    0    0  0.91339452276E+02 -0.12966135602E+03 -0.30440651424E+02  0.17946058952E+03  0.78259230413E+02 0.  0.
        -11    1    4    4    0    0  0.76216750265E+02 -0.12684189687E+03 -0.48512136450E+02  0.15572824794E+03  0.00000000000E+00 0.  1.
         11    1    4    4    0    0  0.15122702011E+02 -0.28194591501E+01  0.18071485026E+02  0.23732341584E+02  0.00000000000E+00 0. -1.
        -15    1    3    3    0    0 -0.30213829560E+02  0.11662356680E+03  0.21068240690E+02  0.12231500449E+03  0.17770000000E+01 0. -1.
         15    1    3    3    0    0 -0.61125622716E+02  0.13037789219E+02  0.93724107348E+01  0.63224405985E+02  0.17770000000E+01 0.  1.
</event>
<event>
 8    1  0.1798472E-005  0.1833754E+03  0.7546771E-02  0.1067760E+00
        -11   -1    0    0    0    0  0.00000000000E+00  0.00000000000E+00  0.18250000000E+03  0.18250000000E+03  0.00000000000E+00 0. -1.
         11   -1    0    0    0    0 -0.00000000000E+00 -0.00000000000E+00 -0.18250000000E+03  0.18250000000E+03  0.00000000000E+00 0.  1.
         23    2    1    2    0    0 -0.16324275476E+02  0.31207855580E+02  0.15441395920E+03  0.18337538214E+03  0.92425363190E+02 0.  0.
         23    2    1    2    0    0  0.16324275476E+02 -0.31207855580E+02 -0.15441395920E+03  0.18162461786E+03  0.88901174320E+02 0.  0.
        -11    1    4    4    0    0 -0.15934138045E+02 -0.15059463851E+02 -0.14168332078E+03  0.14336961880E+03  0.00000000000E+00 0.  1.
         11    1    4    4    0    0  0.32258413521E+02 -0.16148391728E+02 -0.12730638420E+02  0.38254999058E+02  0.00000000000E+00 0. -1.
        -15    1    3    3    0    0  0.34093060280E+02  0.14564511473E+02  0.28764986509E+02  0.46957895306E+02  0.17770000000E+01 0.  1.
         15    1    3    3    0    0 -0.50417335756E+02  0.16643344107E+02  0.12564897269E+03  0.13641748684E+03  0.17770000000E+01 0. -1.
</event>
<event>
 8    1  0.1798472E-005  0.1841419E+03  0.7546771E-02  0.1067155E+00
        -11   -1    0    0    0    0  0.00000000000E+00  0.00000000000E+00  0.18250000000E+03  0.18250000000E+03  0.00000000000E+00 0.  1.
         11   -1    0    0    0    0 -0.00000000000E+00 -0.00000000000E+00 -0.18250000000E+03  0.18250000000E+03  0.00000000000E+00 0. -1.
         23    2    1    2    0    0  0.26114028369E+02 -0.64915066170E+01  0.15758116686E+03  0.18414187131E+03  0.91391041609E+02 0.  0.
         23    2    1    2    0    0 -0.26114028369E+02  0.64915066170E+01 -0.15758116686E+03  0.18085812869E+03  0.84579881926E+02 0.  0.
        -11    1    4    4    0    0  0.17802252986E+02 -0.27817353474E+02 -0.58063556187E+02  0.66798966480E+02  0.00000000000E+00 0.  1.
         11    1    4    4    0    0 -0.43916281355E+02  0.34308860091E+02 -0.99517610674E+02  0.11405916221E+03  0.00000000000E+00 0. -1.
        -15    1    3    3    0    0  0.15664714888E+02 -0.30260053064E+02  0.11872169109E+02  0.36127001430E+02  0.17770000000E+01 0. -1.
         15    1    3    3    0    0  0.10449313481E+02  0.23768546447E+02  0.14570899775E+03  0.14801486988E+03  0.17770000000E+01 0.  1.
</event>
<event>
 8    1  0.1798472E-005  0.1847314E+03  0.7546771E-02  0.1066692E+00
        -11   -1    0    0    0    0  0.00000000000E+00  0.00000000000E+00  0.18250000000E+03  0.18250000000E+03  0.00000000000E+00 0. -1.
         11   -1    0    0    0    0 -0.00000000000E+00 -0.00000000000E+00 -0.18250000000E+03  0.18250000000E+03  0.00000000000E+00 0.  1.
         23    2    1    2    0    0 -0.12502021333E+02 -0.35681355802E+02 -0.15264828849E+03  0.18473142504E+03  0.96926465562E+02 0.  0.
         23    2    1    2    0    0  0.12502021333E+02  0.35681355802E+02  0.15264828849E+03  0.18026857496E+03  0.88123773471E+02 0.  0.
        -11    1    4    4    0    0  0.83339207028E+01  0.70319450430E+01 -0.10161369297E+02  0.14904895550E+02  0.00000000000E+00 0.  1.
         11    1    4    4    0    0  0.41681006302E+01  0.28649410759E+02  0.16280965779E+03  0.16536367941E+03  0.00000000000E+00 0. -1.
        -15    1    3    3    0    0  0.35003255757E+02 -0.17071113093E+02 -0.11463308614E+03  0.12108077049E+03  0.17770000000E+01 0. -1.
         15    1    3    3    0    0 -0.47505277090E+02 -0.18610242710E+02 -0.38015202357E+02  0.63650654547E+02  0.17770000000E+01 0.  1.
</event>
<event>
 8    1  0.1798472E-005  0.1850214E+03  0.7546771E-02  0.1066465E+00
        -11   -1    0    0    0    0  0.00000000000E+00  0.00000000000E+00  0.18250000000E+03  0.18250000000E+03  0.00000000000E+00 0.  1.
         11   -1    0    0    0    0 -0.00000000000E+00 -0.00000000000E+00 -0.18250000000E+03  0.18250000000E+03  0.00000000000E+00 0.  1.
         23    2    1    2    0    0 -0.46566471924E+02 -0.50376048788E+02  0.13687830637E+03  0.17997864128E+03  0.94606860024E+02 0.  0.
         23    2    1    2    0    0  0.46566471924E+02  0.50376048788E+02 -0.13687830637E+03  0.18502135872E+03  0.10387997800E+03 0.  0.
        -11    1    4    4    0    0  0.64250257583E+02 -0.54078968386E+01 -0.85932305604E+02  0.10743231401E+03  0.00000000000E+00 0.  1.
         11    1    4    4    0    0 -0.17683785659E+02  0.55783945626E+02 -0.50946000763E+02  0.77589044708E+02  0.00000000000E+00 0.  1.
        -15    1    3    3    0    0  0.22978776100E+02 -0.39103453245E+02  0.42421647291E+02  0.62127756233E+02  0.17770000000E+01 0.  1.
         15    1    3    3    0    0 -0.69545248024E+02 -0.11272595543E+02  0.94456659077E+02  0.11785088505E+03  0.17770000000E+01 0. -1.
</event>
<event>
 8    1  0.1798472E-005  0.1827474E+03  0.7546771E-02  0.1068258E+00
        -11   -1    0    0    0    0  0.00000000000E+00  0.00000000000E+00  0.18250000000E+03  0.18250000000E+03  0.00000000000E+00 0. -1.
         11   -1    0    0    0    0 -0.00000000000E+00 -0.00000000000E+00 -0.18250000000E+03  0.18250000000E+03  0.00000000000E+00 0.  1.
         23    2    1    2    0    0 -0.97282475777E+01 -0.85249917646E+02 -0.13484813686E+03  0.18225259750E+03  0.87577405869E+02 0.  0.
         23    2    1    2    0    0  0.97282475777E+01  0.85249917646E+02  0.13484813686E+03  0.18274740250E+03  0.88602516029E+02 0.  0.
        -11    1    4    4    0    0  0.27875347516E+02  0.20971121567E+02  0.30806447793E+01  0.35018756562E+02  0.00000000000E+00 0.  1.
         11    1    4    4    0    0 -0.18147099938E+02  0.64278796079E+02  0.13176749208E+03  0.14772864594E+03  0.00000000000E+00 0. -1.
        -15    1    3    3    0    0  0.31952986258E+02 -0.12929634438E+02 -0.18836097776E+02  0.39320797117E+02  0.17770000000E+01 0. -1.
         15    1    3    3    0    0 -0.41681233835E+02 -0.72320283208E+02 -0.11601203909E+03  0.14293180038E+03  0.17770000000E+01 0.  1.
</event>
<event>
 8    1  0.1798472E-005  0.1852720E+03  0.7546771E-02  0.1066269E+00
        -11   -1    0    0    0    0  0.00000000000E+00  0.00000000000E+00  0.18250000000E+03  0.18250000000E+03  0.00000000000E+00 0.  1.
         11   -1    0    0    0    0 -0.00000000000E+00 -0.00000000000E+00 -0.18250000000E+03  0.18250000000E+03  0.00000000000E+00 0. -1.
         23    2    1    2    0    0 -0.80549867835E+01 -0.13907407741E+02 -0.15833386050E+03  0.17972804296E+03  0.83512030528E+02 0.  0.
         23    2    1    2    0    0  0.80549867835E+01  0.13907407741E+02  0.15833386050E+03  0.18527195704E+03  0.94856670196E+02 0.  0.
        -11    1    4    4    0    0  0.40903503907E+02  0.33433465921E+02  0.60948246636E+02  0.80657188417E+02  0.00000000000E+00 0. -1.
         11    1    4    4    0    0 -0.32848517124E+02 -0.19526058180E+02  0.97385613867E+02  0.10461476862E+03  0.00000000000E+00 0.  1.
        -15    1    3    3    0    0 -0.22933804567E+02  0.97942230726E+01 -0.72030444651E+01  0.26017835730E+02  0.17770000000E+01 0.  1.
         15    1    3    3    0    0  0.14878817784E+02 -0.23701630813E+02 -0.15113081604E+03  0.15371020723E+03  0.17770000000E+01 0. -1.
</event>
<event>
 8    1  0.1798472E-005  0.1826171E+03  0.7546771E-02  0.1068362E+00
        -11   -1    0    0    0    0  0.00000000000E+00  0.00000000000E+00  0.18250000000E+03  0.18250000000E+03  0.00000000000E+00 0.  1.
         11   -1    0    0    0    0 -0.00000000000E+00 -0.00000000000E+00 -0.18250000000E+03  0.18250000000E+03  0.00000000000E+00 0. -1.
         23    2    1    2    0    0 -0.57242658245E+02 -0.27496045609E+02  0.14476802519E+03  0.18261714191E+03  0.91424750224E+02 0.  0.
         23    2    1    2    0    0  0.57242658245E+02  0.27496045609E+02 -0.14476802519E+03  0.18238285809E+03  0.90955875894E+02 0.  0.
        -11    1    4    4    0    0  0.37391826203E+02  0.51823695964E+02 -0.45986685722E+02  0.78731311394E+02  0.00000000000E+00 0. -1.
         11    1    4    4    0    0  0.19850832042E+02 -0.24327650356E+02 -0.98781339473E+02  0.10365154670E+03  0.00000000000E+00 0.  1.
        -15    1    3    3    0    0 -0.49327573907E+02 -0.36603187611E+02  0.15497490483E+03  0.16671347200E+03  0.17770000000E+01 0.  1.
         15    1    3    3    0    0 -0.79150843377E+01  0.91071420021E+01 -0.10206879638E+02  0.15903669906E+02  0.17770000000E+01 0. -1.
</event>
<event>
 8    1  0.1798472E-005  0.1860397E+03  0.7546771E-02  0.1065672E+00
        -11   -1    0    0    0    0  0.00000000000E+00  0.00000000000E+00  0.18250000000E+03  0.18250000000E+03  0.00000000000E+00 0. -1.
         11   -1    0    0    0    0 -0.00000000000E+00 -0.00000000000E+00 -0.18250000000E+03  0.18250000000E+03  0.00000000000E+00 0.  1.
         23    2    1    2    0    0  0.20539925365E+02  0.54685879461E+01 -0.15279714242E+03  0.18603973439E+03  0.10398087348E+03 0.  0.
         23    2    1    2    0    0 -0.20539925365E+02 -0.54685879461E+01  0.15279714242E+03  0.17896026561E+03  0.90708411673E+02 0.  0.
        -11    1    4    4    0    0  0.30733803178E+02 -0.20122740373E+02  0.40710005476E+02  0.54834258304E+02  0.00000000000E+00 0.  1.
         11    1    4    4    0    0 -0.51273728543E+02  0.14654152426E+02  0.11208713695E+03  0.12412600731E+03  0.00000000000E+00 0. -1.
        -15    1    3    3    0    0  0.43317570688E+02  0.66978972129E+01 -0.15008976802E+02  0.46364866775E+02  0.17770000000E+01 0. -1.
         15    1    3    3    0    0 -0.22777645324E+02 -0.12293092668E+01 -0.13778816562E+03  0.13967486761E+03  0.17770000000E+01 0.  1.
</event>
<event>
 8    1  0.1798472E-005  0.1828104E+03  0.7546771E-02  0.1068208E+00
        -11   -1    0    0    0    0  0.00000000000E+00  0.00000000000E+00  0.18250000000E+03  0.18250000000E+03  0.00000000000E+00 0. -1.
         11   -1    0    0    0    0 -0.00000000000E+00 -0.00000000000E+00 -0.18250000000E+03  0.18250000000E+03  0.00000000000E+00 0. -1.
         23    2    1    2    0    0 -0.36563852599E+02  0.59223698420E+01 -0.15293340723E+03  0.18281039352E+03  0.93053872299E+02 0.  0.
         23    2    1    2    0    0  0.36563852599E+02 -0.59223698420E+01  0.15293340723E+03  0.18218960648E+03  0.91828295638E+02 0.  0.
        -11    1    4    4    0    0  0.36741842478E+02  0.12015574777E+01  0.16452541384E+03  0.16858237906E+03  0.00000000000E+00 0. -1.
         11    1    4    4    0    0 -0.17798987865E+00 -0.71239273196E+01 -0.11592006609E+02  0.13607227421E+02  0.00000000000E+00 0. -1.
        -15    1    3    3    0    0 -0.43865804131E+02  0.13842613099E+02 -0.16212808098E+03  0.16853634351E+03  0.17770000000E+01 0. -1.
         15    1    3    3    0    0  0.73019515321E+01 -0.79202432568E+01  0.91946737520E+01  0.14274050015E+02  0.17770000000E+01 0.  1.
</event>
<event>
 8    1  0.1798472E-005  0.1826849E+03  0.7546771E-02  0.1068308E+00
        -11   -1    0    0    0    0  0.00000000000E+00  0.00000000000E+00  0.18250000000E+03  0.18250000000E+03  0.00000000000E+00 0. -1.
         11   -1    0    0    0    0 -0.00000000000E+00 -0.00000000000E+00 -0.18250000000E+03  0.18250000000E+03  0.00000000000E+00 0. -1.
         23    2    1    2    0    0  0.11085506992E+02 -0.26037809068E+02 -0.15426532998E+03  0.18268486022E+03  0.93675557923E+02 0.  0.
         23    2    1    2    0    0 -0.11085506992E+02  0.26037809068E+02  0.15426532998E+03  0.18231513978E+03  0.92952472758E+02 0.  0.
        -11    1    4    4    0    0 -0.44099828141E+02  0.12014337188E+02  0.13295690261E+03  0.14059401514E+03  0.00000000000E+00 0. -1.
         11    1    4    4    0    0  0.33014321148E+02  0.14023471879E+02  0.21308427371E+02  0.41721124643E+02  0.00000000000E+00 0. -1.
        -15    1    3    3    0    0 -0.24347247713E+02  0.88655094394E+01 -0.65134871489E+01  0.26776276303E+02  0.17770000000E+01 0.  1.
         15    1    3    3    0    0  0.35432754706E+02 -0.34903318507E+02 -0.14775184283E+03  0.15590858392E+03  0.17770000000E+01 0. -1.
</event>
<event>
 8    1  0.1798472E-005  0.1825955E+03  0.7546771E-02  0.1068379E+00
        -11   -1    0    0    0    0  0.00000000000E+00  0.00000000000E+00  0.18250000000E+03  0.18250000000E+03  0.00000000000E+00 0.  1.
         11   -1    0    0    0    0 -0.00000000000E+00 -0.00000000000E+00 -0.18250000000E+03  0.18250000000E+03  0.00000000000E+00 0. -1.
         23    2    1    2    0    0 -0.32439119526E+02  0.44408860010E+02 -0.14802550547E+03  0.18259551996E+03  0.91679497808E+02 0.  0.
         23    2    1    2    0    0  0.32439119526E+02 -0.44408860010E+02  0.14802550547E+03  0.18240448004E+03  0.91298415897E+02 0.  0.
        -11    1    4    4    0    0  0.42753471565E+02 -0.59565315150E+02  0.14672565859E+03  0.16402531813E+03  0.00000000000E+00 0.  1.
         11    1    4    4    0    0 -0.10314352039E+02  0.15156455140E+02  0.12998468787E+01  0.18379161905E+02  0.00000000000E+00 0. -1.
        -15    1    3    3    0    0 -0.92202197724E+01 -0.87085397959E+00  0.11655800700E+02  0.14992873583E+02  0.17770000000E+01 0.  1.
         15    1    3    3    0    0 -0.23218899754E+02  0.45279713990E+02 -0.15968130617E+03  0.16760264638E+03  0.17770000000E+01 0. -1.
</event>
<event>
 8    1  0.1798472E-005  0.1826024E+03  0.7546771E-02  0.1068373E+00
        -11   -1    0    0    0    0  0.00000000000E+00  0.00000000000E+00  0.18250000000E+03  0.18250000000E+03  0.00000000000E+00 0.  1.
         11   -1    0    0    0    0 -0.00000000000E+00 -0.00000000000E+00 -0.18250000000E+03  0.18250000000E+03  0.00000000000E+00 0. -1.
         23    2    1    2    0    0 -0.35154746643E+02  0.69006126589E+02  0.13828250684E+03  0.18260241857E+03  0.90685665081E+02 0.  0.
         23    2    1    2    0    0  0.35154746643E+02 -0.69006126589E+02 -0.13828250684E+03  0.18239758143E+03  0.90272500218E+02 0.  0.
        -11    1    4    4    0    0  0.53467294610E+02 -0.11577697086E+02 -0.42709364082E+02  0.69403778305E+02  0.00000000000E+00 0.  1.
         11    1    4    4    0    0 -0.18312547967E+02 -0.57428429503E+02 -0.95573142757E+02  0.11299380313E+03  0.00000000000E+00 0. -1.
        -15    1    3    3    0    0 -0.18719766558E+02  0.23711975117E+02 -0.56700229781E+01  0.30789516292E+02  0.17770000000E+01 0. -1.
         15    1    3    3    0    0 -0.16434980086E+02  0.45294151472E+02  0.14395252982E+03  0.15181290228E+03  0.17770000000E+01 0.  1.
</event>
<event>
 8    1  0.1798472E-005  0.1830345E+03  0.7546771E-02  0.1068030E+00
        -11   -1    0    0    0    0  0.00000000000E+00  0.00000000000E+00  0.18250000000E+03  0.18250000000E+03  0.00000000000E+00 0.  1.
         11   -1    0    0    0    0 -0.00000000000E+00 -0.00000000000E+00 -0.18250000000E+03  0.18250000000E+03  0.00000000000E+00 0. -1.
         23    2    1    2    0    0 -0.46809133852E+02 -0.14002284984E+01 -0.15028032792E+03  0.18303452556E+03  0.93404523104E+02 0.  0.
         23    2    1    2    0    0  0.46809133852E+02  0.14002284984E+01  0.15028032792E+03  0.18196547444E+03  0.91291846708E+02 0.  0.
        -11    1    4    4    0    0  0.34353407348E+02 -0.18101520558E+02  0.10420909026E+02  0.40204688630E+02  0.00000000000E+00 0. -1.
         11    1    4    4    0    0  0.12455726504E+02  0.19501749056E+02  0.13985941889E+03  0.14176078581E+03  0.00000000000E+00 0.  1.
        -15    1    3    3    0    0  0.25570862626E+02  0.14289141902E+02 -0.55034939466E+02  0.62370272428E+02  0.17770000000E+01 0.  1.
         15    1    3    3    0    0 -0.72379996478E+02 -0.15689370401E+02 -0.95245388455E+02  0.12066425314E+03  0.17770000000E+01 0. -1.
</event>
<event>
 8    1  0.1798472E-005  0.1829052E+03  0.7546771E-02  0.1068133E+00
        -11   -1    0    0    0    0  0.00000000000E+00  0.00000000000E+00  0.18250000000E+03  0.18250000000E+03  0.00000000000E+00 0.  1.
         11   -1    0    0    0    0 -0.00000000000E+00 -0.00000000000E+00 -0.18250000000E+03  0.18250000000E+03  0.00000000000E+00 0. -1.
         23    2    1    2    0    0 -0.29115723261E+02 -0.33568472914E+02 -0.15245269976E+03  0.18209478697E+03  0.89118561822E+02 0.  0.
         23    2    1    2    0    0  0.29115723261E+02  0.33568472914E+02  0.15245269976E+03  0.18290521303E+03  0.90763007750E+02 0.  0.
        -11    1    4    4    0    0  0.79470858217E+00  0.33806721023E+02  0.15078908519E+03  0.15453437857E+03  0.00000000000E+00 0.  1.
         11    1    4    4    0    0  0.28321014679E+02 -0.23824810970E+00  0.16636145697E+01  0.28370834461E+02  0.00000000000E+00 0. -1.
        -15    1    3    3    0    0 -0.49433104146E+02 -0.50708642649E+02 -0.92666123903E+02  0.11664118686E+03  0.17770000000E+01 0. -1.
         15    1    3    3    0    0  0.20317380885E+02  0.17140169735E+02 -0.59786575857E+02  0.65453600102E+02  0.17770000000E+01 0.  1.
</event>
<event>
 8    1  0.1798472E-005  0.1825343E+03  0.7546771E-02  0.1068428E+00
        -11   -1    0    0    0    0  0.00000000000E+00  0.00000000000E+00  0.18250000000E+03  0.18250000000E+03  0.00000000000E+00 0.  1.
         11   -1    0    0    0    0 -0.00000000000E+00 -0.00000000000E+00 -0.18250000000E+03  0.18250000000E+03  0.00000000000E+00 0. -1.
         23    2    1    2    0    0 -0.51152721404E+01 -0.15498891139E+03  0.30907160211E+02  0.18246571448E+03  0.91053587220E+02 0.  0.
         23    2    1    2    0    0  0.51152721404E+01  0.15498891139E+03 -0.30907160211E+02  0.18253428552E+03  0.91190921572E+02 0.  0.
        -11    1    4    4    0    0  0.43015890837E+02  0.40324011092E+02 -0.13889953587E+02  0.60574941566E+02  0.00000000000E+00 0. -1.
         11    1    4    4    0    0 -0.37900618697E+02  0.11466490029E+03 -0.17017206624E+02  0.12195934396E+03  0.00000000000E+00 0.  1.
        -15    1    3    3    0    0  0.47899138251E+01 -0.32760674082E+02  0.48311717678E+02  0.58595092241E+02  0.17770000000E+01 0.  1.
         15    1    3    3    0    0 -0.99051859654E+01 -0.12222823730E+03 -0.17404557467E+02  0.12387062224E+03  0.17770000000E+01 0. -1.
</event>
<event>
 8    1  0.1798472E-005  0.1827543E+03  0.7546771E-02  0.1068253E+00
        -11   -1    0    0    0    0  0.00000000000E+00  0.00000000000E+00  0.18250000000E+03  0.18250000000E+03  0.00000000000E+00 0.  1.
         11   -1    0    0    0    0 -0.00000000000E+00 -0.00000000000E+00 -0.18250000000E+03  0.18250000000E+03  0.00000000000E+00 0. -1.
         23    2    1    2    0    0 -0.12302580031E+02 -0.14659640056E+03 -0.57833144994E+02  0.18224565988E+03  0.90702534439E+02 0.  0.
         23    2    1    2    0    0  0.12302580031E+02  0.14659640056E+03  0.57833144994E+02  0.18275434012E+03  0.91720325111E+02 0.  0.
        -11    1    4    4    0    0 -0.34302402277E+02  0.23139202838E+02  0.12512637452E+02  0.43227810562E+02  0.00000000000E+00 0. -1.
         11    1    4    4    0    0  0.46604982308E+02  0.12345719772E+03  0.45320507542E+02  0.13952652955E+03  0.00000000000E+00 0.  1.
        -15    1    3    3    0    0 -0.25191073665E+02  0.52565569803E-01 -0.12640188497E+02  0.28240486005E+02  0.17770000000E+01 0.  1.
         15    1    3    3    0    0  0.12888493634E+02 -0.14664896613E+03 -0.45192956497E+02  0.15400517388E+03  0.17770000000E+01 0. -1.
</event>
<event>
 8    1  0.1798472E-005  0.1827760E+03  0.7546771E-02  0.1068235E+00
        -11   -1    0    0    0    0  0.00000000000E+00  0.00000000000E+00  0.18250000000E+03  0.18250000000E+03  0.00000000000E+00 0.  1.
         11   -1    0    0    0    0 -0.00000000000E+00 -0.00000000000E+00 -0.18250000000E+03  0.18250000000E+03  0.00000000000E+00 0. -1.
         23    2    1    2    0    0  0.63522311962E+02 -0.59977225226E+02  0.13173242042E+03  0.18277596893E+03  0.91767491867E+02 0.  0.
         23    2    1    2    0    0 -0.63522311962E+02  0.59977225226E+02 -0.13173242042E+03  0.18222403107E+03  0.90663196760E+02 0.  0.
        -11    1    4    4    0    0 -0.86904839801E+02  0.47984162936E+02 -0.10951188488E+03  0.14780995908E+03  0.00000000000E+00 0. -1.
         11    1    4    4    0    0  0.23382527839E+02  0.11993062290E+02 -0.22220535548E+02  0.34414071995E+02  0.00000000000E+00 0.  1.
        -15    1    3    3    0    0  0.93131569873E+01 -0.74158927931E+01  0.10021564139E+03  0.10093593447E+03  0.17770000000E+01 0. -1.
         15    1    3    3    0    0  0.54209154975E+02 -0.52561332433E+02  0.31516779033E+02  0.81840034456E+02  0.17770000000E+01 0.  1.
</event>
<event>
 7    1  0.2281358E-005  0.3650000E+03  0.7546771E-02  0.9765871E-01
        -11   -1    0    0    0    0  0.00000000000E+00  0.00000000000E+00  0.18250000000E+03  0.18250000000E+03  0.00000000000E+00 0. -1.
         11   -1    0    0    0    0 -0.00000000000E+00 -0.00000000000E+00 -0.18250000000E+03  0.18250000000E+03  0.00000000000E+00 0. -1.
         23    2    1    2    0    0 -0.13225678122E+02  0.66482152640E+02 -0.10143181519E+03  0.15430175846E+03  0.94476580954E+02 0.  0.
        -11    1    3    3    0    0 -0.43637151299E+02  0.85859741293E+01 -0.66936520350E+02  0.80364281132E+02  0.00000000000E+00 0. -1.
         11    1    3    3    0    0  0.30411473178E+02  0.57896178511E+02 -0.34495294838E+02  0.73937477323E+02  0.00000000000E+00 0. -1.
        -15    1    1    2    0    0  0.75298731727E+02 -0.86173582831E+02  0.87532057672E+02  0.14408610005E+03  0.17770000000E+01 0. -1.
         15    1    1    2    0    0 -0.62073053605E+02  0.19691430191E+02  0.13899757516E+02  0.66612141497E+02  0.17770000000E+01 0.  1.
</event>
<event>
 8    1  0.1798472E-005  0.1837389E+03  0.7546771E-02  0.1067473E+00
        -11   -1    0    0    0    0  0.00000000000E+00  0.00000000000E+00  0.18250000000E+03  0.18250000000E+03  0.00000000000E+00 0. -1.
         11   -1    0    0    0    0 -0.00000000000E+00 -0.00000000000E+00 -0.18250000000E+03  0.18250000000E+03  0.00000000000E+00 0.  1.
         23    2    1    2    0    0 -0.23625060471E+02 -0.34365776427E+00 -0.15794994873E+03  0.18373886137E+03  0.90848892637E+02 0.  0.
         23    2    1    2    0    0  0.23625060471E+02  0.34365776427E+00  0.15794994873E+03  0.18126113863E+03  0.85727198077E+02 0.  0.
        -11    1    4    4    0    0 -0.26058316006E+02  0.48816710819E+01  0.16394489833E+02  0.31171234216E+02  0.00000000000E+00 0.  1.
         11    1    4    4    0    0  0.49683376477E+02 -0.45380133176E+01  0.14155545889E+03  0.15008990441E+03  0.00000000000E+00 0. -1.
        -15    1    3    3    0    0 -0.21597242661E+02  0.24683123262E+02 -0.15494543502E+03  0.15838858238E+03  0.17770000000E+01 0.  1.
         15    1    3    3    0    0 -0.20278178094E+01 -0.25026781026E+02 -0.30045137049E+01  0.25350278996E+02  0.17770000000E+01 0. -1.
</event>
<event>
 8    1  0.1798472E-005  0.1836515E+03  0.7546771E-02  0.1067542E+00
        -11   -1    0    0    0    0  0.00000000000E+00  0.00000000000E+00  0.18250000000E+03  0.18250000000E+03  0.00000000000E+00 0.  1.
         11   -1    0    0    0    0 -0.00000000000E+00 -0.00000000000E+00 -0.18250000000E+03  0.18250000000E+03  0.00000000000E+00 0. -1.
         23    2    1    2    0    0  0.13190226000E+03 -0.64508090256E+02  0.54572705237E+02  0.18134845445E+03  0.91376046498E+02 0.  0.
         23    2    1    2    0    0 -0.13190226000E+03  0.64508090256E+02 -0.54572705237E+02  0.18365154555E+03  0.95865583627E+02 0.  0.
        -11    1    4    4    0    0  0.49908772926E+01  0.16285994780E+02  0.15002793980E+02  0.22698597079E+02  0.00000000000E+00 0.  1.
         11    1    4    4    0    0 -0.13689313729E+03  0.48222095476E+02 -0.69575499217E+02  0.16095294847E+03  0.00000000000E+00 0. -1.
        -15    1    3    3    0    0  0.49938968082E+02 -0.63716256723E+02 -0.32231293829E+01  0.81038313136E+02  0.17770000000E+01 0. -1.
         15    1    3    3    0    0  0.81963291917E+02 -0.79183353236E+00  0.57795834619E+02  0.10031014131E+03  0.17770000000E+01 0.  1.
</event>
<event>
 8    1  0.1798472E-005  0.1825249E+03  0.7546771E-02  0.1068435E+00
        -11   -1    0    0    0    0  0.00000000000E+00  0.00000000000E+00  0.18250000000E+03  0.18250000000E+03  0.00000000000E+00 0.  1.
         11   -1    0    0    0    0 -0.00000000000E+00 -0.00000000000E+00 -0.18250000000E+03  0.18250000000E+03  0.00000000000E+00 0. -1.
         23    2    1    2    0    0 -0.12971774870E+02  0.12962692070E+02 -0.15746429179E+03  0.18252485714E+03  0.90465584375E+02 0.  0.
         23    2    1    2    0    0  0.12971774870E+02 -0.12962692070E+02  0.15746429179E+03  0.18247514286E+03  0.90365238042E+02 0.  0.
        -11    1    4    4    0    0  0.32896650573E+02 -0.15122538661E+02  0.15832793187E+03  0.16241494637E+03  0.00000000000E+00 0.  1.
         11    1    4    4    0    0 -0.19924875703E+02  0.21598465904E+01 -0.86364008516E+00  0.20060196491E+02  0.00000000000E+00 0. -1.
        -15    1    3    3    0    0 -0.26617753919E+02 -0.30690841593E+01 -0.15908449048E+03  0.16133492165E+03  0.17770000000E+01 0. -1.
         15    1    3    3    0    0  0.13645979049E+02  0.16031776230E+02  0.16201986975E+01  0.21189935491E+02  0.17770000000E+01 0.  1.
</event>
<event>
 8    1  0.1798472E-005  0.1835061E+03  0.7546771E-02  0.1067657E+00
        -11   -1    0    0    0    0  0.00000000000E+00  0.00000000000E+00  0.18250000000E+03  0.18250000000E+03  0.00000000000E+00 0.  1.
         11   -1    0    0    0    0 -0.00000000000E+00 -0.00000000000E+00 -0.18250000000E+03  0.18250000000E+03  0.00000000000E+00 0. -1.
         23    2    1    2    0    0  0.69868433925E+02  0.64465149745E+01 -0.14243152444E+03  0.18350612268E+03  0.92003273269E+02 0.  0.
         23    2    1    2    0    0 -0.69868433925E+02 -0.64465149745E+01  0.14243152444E+03  0.18149387732E+03  0.87921173411E+02 0.  0.
        -11    1    4    4    0    0 -0.54446501055E+02  0.36630789788E+02  0.96188046407E+02  0.11644044190E+03  0.00000000000E+00 0.  1.
         11    1    4    4    0    0 -0.15421932871E+02 -0.43077304763E+02  0.46243478036E+02  0.65053435420E+02  0.00000000000E+00 0. -1.
        -15    1    3    3    0    0  0.45526732075E+02 -0.16055809791E+00 -0.15027698511E+03  0.15703196839E+03  0.17770000000E+01 0. -1.
         15    1    3    3    0    0  0.24341701850E+02  0.66070730724E+01  0.78454606680E+01  0.26474154295E+02  0.17770000000E+01 0.  1.
</event>
<event>
 8    1  0.1798472E-005  0.1836276E+03  0.7546771E-02  0.1067561E+00
        -11   -1    0    0    0    0  0.00000000000E+00  0.00000000000E+00  0.18250000000E+03  0.18250000000E+03  0.00000000000E+00 0.  1.
         11   -1    0    0    0    0 -0.00000000000E+00 -0.00000000000E+00 -0.18250000000E+03  0.18250000000E+03  0.00000000000E+00 0. -1.
         23    2    1    2    0    0  0.68945444392E+02 -0.11993814733E+03  0.74347292321E+02  0.18362757660E+03  0.95146904972E+02 0.  0.
         23    2    1    2    0    0 -0.68945444392E+02  0.11993814733E+03 -0.74347292321E+02  0.18137242340E+03  0.90718259501E+02 0.  0.
        -11    1    4    4    0    0 -0.34244454511E+00  0.59031910707E+02 -0.67065021108E+02  0.89345401707E+02  0.00000000000E+00 0.  1.
         11    1    4    4    0    0 -0.68602999846E+02  0.60906236623E+02 -0.72822712130E+01  0.92027021692E+02  0.00000000000E+00 0. -1.
        -15    1    3    3    0    0  0.68204953566E+02 -0.36087215964E+02  0.61683453039E+02  0.98803891395E+02  0.17770000000E+01 0.  1.
         15    1    3    3    0    0  0.74049082521E+00 -0.83850931366E+02  0.12663839282E+02  0.84823685206E+02  0.17770000000E+01 0. -1.
</event>
<event>
 8    1  0.1798472E-005  0.1841746E+03  0.7546771E-02  0.1067130E+00
        -11   -1    0    0    0    0  0.00000000000E+00  0.00000000000E+00  0.18250000000E+03  0.18250000000E+03  0.00000000000E+00 0.  1.
         11   -1    0    0    0    0 -0.00000000000E+00 -0.00000000000E+00 -0.18250000000E+03  0.18250000000E+03  0.00000000000E+00 0. -1.
         23    2    1    2    0    0  0.32223656699E+02 -0.36623659655E+02 -0.14827108503E+03  0.18082544564E+03  0.91290035811E+02 0.  0.
         23    2    1    2    0    0 -0.32223656699E+02  0.36623659655E+02  0.14827108503E+03  0.18417455436E+03  0.97756305791E+02 0.  0.
        -11    1    4    4    0    0 -0.41181054889E+02  0.62872001874E+02  0.76553468866E+02  0.10728094657E+03  0.00000000000E+00 0.  1.
         11    1    4    4    0    0  0.89573981899E+01 -0.26248342219E+02  0.71717616160E+02  0.76893607792E+02  0.00000000000E+00 0. -1.
        -15    1    3    3    0    0  0.13710341854E+02 -0.54104367538E+02 -0.37774048901E+02  0.67418784918E+02  0.17770000000E+01 0.  1.
         15    1    3    3    0    0  0.18513314845E+02  0.17480707883E+02 -0.11049703612E+03  0.11340666072E+03  0.17770000000E+01 0. -1.
</event>
<event>
 8    1  0.1798472E-005  0.1826292E+03  0.7546771E-02  0.1068352E+00
        -11   -1    0    0    0    0  0.00000000000E+00  0.00000000000E+00  0.18250000000E+03  0.18250000000E+03  0.00000000000E+00 0.  1.
         11   -1    0    0    0    0 -0.00000000000E+00 -0.00000000000E+00 -0.18250000000E+03  0.18250000000E+03  0.00000000000E+00 0. -1.
         23    2    1    2    0    0  0.27343684527E+00  0.10398552452E+02  0.15767797159E+03  0.18262918420E+03  0.91558022790E+02 0.  0.
         23    2    1    2    0    0 -0.27343684527E+00 -0.10398552452E+02 -0.15767797159E+03  0.18237081580E+03  0.91041567818E+02 0.  0.
        -11    1    4    4    0    0 -0.20660178532E+02  0.29651427059E+02 -0.11442903207E+03  0.12000022285E+03  0.00000000000E+00 0.  1.
         11    1    4    4    0    0  0.20386741687E+02 -0.40049979511E+02 -0.43248939515E+02  0.62370592947E+02  0.00000000000E+00 0. -1.
        -15    1    3    3    0    0  0.40660773696E+02  0.26890540420E+01  0.36794060934E+02  0.54931686468E+02  0.17770000000E+01 0. -1.
         15    1    3    3    0    0 -0.40387336850E+02  0.77094984104E+01  0.12088391065E+03  0.12769749773E+03  0.17770000000E+01 0.  1.
</event>
<event>
 8    1  0.1798472E-005  0.1833910E+03  0.7546771E-02  0.1067748E+00
        -11   -1    0    0    0    0  0.00000000000E+00  0.00000000000E+00  0.18250000000E+03  0.18250000000E+03  0.00000000000E+00 0. -1.
         11   -1    0    0    0    0 -0.00000000000E+00 -0.00000000000E+00 -0.18250000000E+03  0.18250000000E+03  0.00000000000E+00 0.  1.
         23    2    1    2    0    0 -0.16326835480E+02 -0.91191493383E+02  0.12833669067E+03  0.18339097666E+03  0.92625537129E+02 0.  0.
         23    2    1    2    0    0  0.16326835480E+02  0.91191493383E+02 -0.12833669067E+03  0.18160902334E+03  0.89045365760E+02 0.  0.
        -11    1    4    4    0    0 -0.25628675828E+02  0.30897727769E+02 -0.84722360793E+01  0.41027763651E+02  0.00000000000E+00 0.  1.
         11    1    4    4    0    0  0.41955511308E+02  0.60293765614E+02 -0.11986445459E+03  0.14058125969E+03  0.00000000000E+00 0. -1.
        -15    1    3    3    0    0  0.13213737153E+02 -0.76480587721E+01  0.81905344351E+02  0.83335099536E+02  0.17770000000E+01 0. -1.
         15    1    3    3    0    0 -0.29540572633E+02 -0.83543434611E+02  0.46431346316E+02  0.10005587713E+03  0.17770000000E+01 0.  1.
</event>
<event>
 8    1  0.1798472E-005  0.1832596E+03  0.7546771E-02  0.1067852E+00
        -11   -1    0    0    0    0  0.00000000000E+00  0.00000000000E+00  0.18250000000E+03  0.18250000000E+03  0.00000000000E+00 0.  1.
         11   -1    0    0    0    0 -0.00000000000E+00 -0.00000000000E+00 -0.18250000000E+03  0.18250000000E+03  0.00000000000E+00 0. -1.
         23    2    1    2    0    0  0.32041876848E+02  0.60665960697E+02  0.14306584656E+03  0.18174037142E+03  0.88626663542E+02 0.  0.
         23    2    1    2    0    0 -0.32041876848E+02 -0.60665960697E+02 -0.14306584656E+03  0.18325962858E+03  0.91701768551E+02 0.  0.
        -11    1    4    4    0    0 -0.14548455404E+02 -0.71050238602E+02 -0.14569433522E+03  0.16274714521E+03  0.00000000000E+00 0. -1.
         11    1    4    4    0    0 -0.17493421444E+02  0.10384277905E+02  0.26284886519E+01  0.20512483371E+02  0.00000000000E+00 0.  1.
        -15    1    3    3    0    0 -0.47693933592E+01 -0.21405221091E+02  0.24984262505E+02  0.33291165569E+02  0.17770000000E+01 0. -1.
         15    1    3    3    0    0  0.36811270207E+02  0.82071181788E+02  0.11808158406E+03  0.14844920585E+03  0.17770000000E+01 0.  1.
</event>
<event>
 8    1  0.1798472E-005  0.1848811E+03  0.7546771E-02  0.1066575E+00
        -11   -1    0    0    0    0  0.00000000000E+00  0.00000000000E+00  0.18250000000E+03  0.18250000000E+03  0.00000000000E+00 0.  1.
         11   -1    0    0    0    0 -0.00000000000E+00 -0.00000000000E+00 -0.18250000000E+03  0.18250000000E+03  0.00000000000E+00 0. -1.
         23    2    1    2    0    0 -0.42825312272E+02 -0.63029048252E+02 -0.14137721777E+03  0.18011893918E+03  0.81539231367E+02 0.  0.
         23    2    1    2    0    0  0.42825312272E+02  0.63029048252E+02  0.14137721777E+03  0.18488106082E+03  0.91579586431E+02 0.  0.
        -11    1    4    4    0    0  0.92488964542E+01 -0.22246781144E+02  0.13698148887E+02  0.27714628625E+02  0.00000000000E+00 0. -1.
         11    1    4    4    0    0  0.33576415817E+02  0.85275829395E+02  0.12767906888E+03  0.15716643220E+03  0.00000000000E+00 0.  1.
        -15    1    3    3    0    0 -0.59020011946E+02 -0.71417016319E+02 -0.11048411350E+03  0.14420003153E+03  0.17770000000E+01 0. -1.
         15    1    3    3    0    0  0.16194699674E+02  0.83879680669E+01 -0.30893104272E+02  0.35918907645E+02  0.17770000000E+01 0.  1.
</event>
<event>
 8    1  0.1798472E-005  0.1828100E+03  0.7546771E-02  0.1068208E+00
        -11   -1    0    0    0    0  0.00000000000E+00  0.00000000000E+00  0.18250000000E+03  0.18250000000E+03  0.00000000000E+00 0.  1.
         11   -1    0    0    0    0 -0.00000000000E+00 -0.00000000000E+00 -0.18250000000E+03  0.18250000000E+03  0.00000000000E+00 0. -1.
         23    2    1    2    0    0  0.49028967444E+02  0.19702464972E+02  0.14927586245E+03  0.18219003263E+03  0.90099379053E+02 0.  0.
         23    2    1    2    0    0 -0.49028967444E+02 -0.19702464972E+02 -0.14927586245E+03  0.18280996737E+03  0.91346451957E+02 0.  0.
        -11    1    4    4    0    0 -0.73799381530E+02 -0.21026561391E+01 -0.11807952959E+03  0.13926070941E+03  0.00000000000E+00 0. -1.
         11    1    4    4    0    0  0.24770414086E+02 -0.17599808833E+02 -0.31196332854E+02  0.43549257956E+02  0.00000000000E+00 0.  1.
        -15    1    3    3    0    0  0.26447819848E+02  0.51516152680E+02  0.53912665637E+02  0.79139967189E+02  0.17770000000E+01 0.  1.
         15    1    3    3    0    0  0.22581147596E+02 -0.31813687708E+02  0.95363196812E+02  0.10305006544E+03  0.17770000000E+01 0. -1.
</event>
<event>
 8    1  0.1798472E-005  0.1827702E+03  0.7546771E-02  0.1068240E+00
        -11   -1    0    0    0    0  0.00000000000E+00  0.00000000000E+00  0.18250000000E+03  0.18250000000E+03  0.00000000000E+00 0.  1.
         11   -1    0    0    0    0 -0.00000000000E+00 -0.00000000000E+00 -0.18250000000E+03  0.18250000000E+03  0.00000000000E+00 0. -1.
         23    2    1    2    0    0 -0.85678971811E+02 -0.12678784471E+03  0.40569332463E+02  0.18222975472E+03  0.90253913988E+02 0.  0.
         23    2    1    2    0    0  0.85678971811E+02  0.12678784471E+03 -0.40569332463E+02  0.18277024528E+03  0.91340287096E+02 0.  0.
        -11    1    4    4    0    0 -0.30680186269E+01 -0.10908383007E+02 -0.11955210976E+02  0.16472177379E+02  0.00000000000E+00 0.  1.
         11    1    4    4    0    0  0.88746990438E+02  0.13769622772E+03 -0.28614121487E+02  0.16629806790E+03  0.00000000000E+00 0. -1.
        -15    1    3    3    0    0 -0.82503574169E+02 -0.13793353697E+03  0.48713191574E+02  0.16795425906E+03  0.17770000000E+01 0.  1.
         15    1    3    3    0    0 -0.31753976417E+01  0.11145692260E+02 -0.81438591112E+01  0.14275495661E+02  0.17770000000E+01 0. -1.
</event>
<event>
 8    1  0.1798472E-005  0.1830173E+03  0.7546771E-02  0.1068044E+00
        -11   -1    0    0    0    0  0.00000000000E+00  0.00000000000E+00  0.18250000000E+03  0.18250000000E+03  0.00000000000E+00 0.  1.
         11   -1    0    0    0    0 -0.00000000000E+00 -0.00000000000E+00 -0.18250000000E+03  0.18250000000E+03  0.00000000000E+00 0. -1.
         23    2    1    2    0    0 -0.16354051420E+02 -0.56582277565E+02 -0.14611421332E+03  0.18198269450E+03  0.91100651093E+02 0.  0.
         23    2    1    2    0    0  0.16354051420E+02  0.56582277565E+02  0.14611421332E+03  0.18301730550E+03  0.93150210133E+02 0.  0.
        -11    1    4    4    0    0 -0.25517868270E+02  0.61105840066E+02  0.10515757497E+03  0.12427067580E+03  0.00000000000E+00 0.  1.
         11    1    4    4    0    0  0.41871919690E+02 -0.45235625017E+01  0.40956638352E+02  0.58746629702E+02  0.00000000000E+00 0. -1.
        -15    1    3    3    0    0 -0.20074586885E+02 -0.81124999378E+02 -0.11329260728E+03  0.14079285194E+03  0.17770000000E+01 0. -1.
         15    1    3    3    0    0  0.37205354645E+01  0.24542721813E+02 -0.32821606039E+02  0.41189842560E+02  0.17770000000E+01 0.  1.
</event>
<event>
 8    1  0.1798472E-005  0.1838675E+03  0.7546771E-02  0.1067371E+00
        -11   -1    0    0    0    0  0.00000000000E+00  0.00000000000E+00  0.18250000000E+03  0.18250000000E+03  0.00000000000E+00 0. -1.
         11   -1    0    0    0    0 -0.00000000000E+00 -0.00000000000E+00 -0.18250000000E+03  0.18250000000E+03  0.00000000000E+00 0.  1.
         23    2    1    2    0    0  0.53125935377E+02 -0.99630260574E+01  0.14892219720E+03  0.18113252254E+03  0.87804003346E+02 0.  0.
         23    2    1    2    0    0 -0.53125935377E+02  0.99630260574E+01 -0.14892219720E+03  0.18386747746E+03  0.93315601870E+02 0.  0.
        -11    1    4    4    0    0  0.70684101314E+01  0.38453175622E+02 -0.73498604255E+02  0.83250549335E+02  0.00000000000E+00 0. -1.
         11    1    4    4    0    0 -0.60194345509E+02 -0.28490149564E+02 -0.75423592945E+02  0.10061692813E+03  0.00000000000E+00 0.  1.
        -15    1    3    3    0    0 -0.17569402395E+02  0.17874061955E+02  0.53800159745E+02  0.59378286510E+02  0.17770000000E+01 0.  1.
         15    1    3    3    0    0  0.70695337772E+02 -0.27837088012E+02  0.95122037455E+02  0.12175423603E+03  0.17770000000E+01 0. -1.
</event>
<event>
 8    1  0.1798472E-005  0.1843782E+03  0.7546771E-02  0.1066970E+00
        -11   -1    0    0    0    0  0.00000000000E+00  0.00000000000E+00  0.18250000000E+03  0.18250000000E+03  0.00000000000E+00 0.  1.
         11   -1    0    0    0    0 -0.00000000000E+00 -0.00000000000E+00 -0.18250000000E+03  0.18250000000E+03  0.00000000000E+00 0. -1.
         23    2    1    2    0    0 -0.68335790613E+02  0.93010689483E+02 -0.11137011586E+03  0.18062183908E+03  0.83067306498E+02 0.  0.
         23    2    1    2    0    0  0.68335790613E+02 -0.93010689483E+02  0.11137011586E+03  0.18437816092E+03  0.90946329680E+02 0.  0.
        -11    1    4    4    0    0  0.45698089745E+02 -0.10186228693E+03  0.11444124202E+03  0.15987819982E+03  0.00000000000E+00 0.  1.
         11    1    4    4    0    0  0.22637700868E+02  0.88515974465E+01 -0.30711261587E+01  0.24499961098E+02  0.00000000000E+00 0. -1.
        -15    1    3    3    0    0 -0.71659291754E+02  0.10628440080E+03 -0.97542591173E+02  0.16108737620E+03  0.17770000000E+01 0. -1.
         15    1    3    3    0    0  0.33235011409E+01 -0.13273711321E+02 -0.13827524684E+02  0.19534462879E+02  0.17770000000E+01 0.  1.
</event>
<event>
 8    1  0.1798472E-005  0.1831999E+03  0.7546771E-02  0.1067899E+00
        -11   -1    0    0    0    0  0.00000000000E+00  0.00000000000E+00  0.18250000000E+03  0.18250000000E+03  0.00000000000E+00 0.  1.
         11   -1    0    0    0    0 -0.00000000000E+00 -0.00000000000E+00 -0.18250000000E+03  0.18250000000E+03  0.00000000000E+00 0. -1.
         23    2    1    2    0    0 -0.41581831510E+02 -0.34307945881E+02 -0.14750792619E+03  0.18319986114E+03  0.94326650380E+02 0.  0.
         23    2    1    2    0    0  0.41581831510E+02  0.34307945881E+02  0.14750792619E+03  0.18180013886E+03  0.91578481858E+02 0.  0.
        -11    1    4    4    0    0  0.30475996778E+02 -0.10614034429E+02  0.58780980322E+01  0.32802380142E+02  0.00000000000E+00 0. -1.
         11    1    4    4    0    0  0.11105834732E+02  0.44921980310E+02  0.14162982815E+03  0.14899775872E+03  0.00000000000E+00 0.  1.
        -15    1    3    3    0    0 -0.41016003807E+02 -0.20003686474E+02 -0.12397315656E+02  0.47321360984E+02  0.17770000000E+01 0.  1.
         15    1    3    3    0    0 -0.56582770265E+00 -0.14304259407E+02 -0.13511061053E+03  0.13587850016E+03  0.17770000000E+01 0. -1.
</event>
<event>
 8    1  0.1798472E-005  0.1832400E+03  0.7546771E-02  0.1067867E+00
        -11   -1    0    0    0    0  0.00000000000E+00  0.00000000000E+00  0.18250000000E+03  0.18250000000E+03  0.00000000000E+00 0. -1.
         11   -1    0    0    0    0 -0.00000000000E+00 -0.00000000000E+00 -0.18250000000E+03  0.18250000000E+03  0.00000000000E+00 0.  1.
         23    2    1    2    0    0 -0.28354120058E+02  0.36832246823E+02  0.15193748386E+03  0.18176003325E+03  0.88267435420E+02 0.  0.
         23    2    1    2    0    0  0.28354120058E+02 -0.36832246823E+02 -0.15193748386E+03  0.18323996675E+03  0.91276042207E+02 0.  0.
        -11    1    4    4    0    0  0.49554924271E+02 -0.45211725726E+02 -0.14441522731E+03  0.15923425681E+03  0.00000000000E+00 0.  1.
         11    1    4    4    0    0 -0.21200804213E+02  0.83794789027E+01 -0.75222565512E+01  0.24005709937E+02  0.00000000000E+00 0. -1.
        -15    1    3    3    0    0  0.27831500940E+02 -0.64620990773E-01  0.72534372382E+02  0.77710935693E+02  0.17770000000E+01 0. -1.
         15    1    3    3    0    0 -0.56185620998E+02  0.36896867814E+02  0.79403111479E+02  0.10404909756E+03  0.17770000000E+01 0.  1.
</event>
<event>
 8    1  0.1798472E-005  0.1836424E+03  0.7546771E-02  0.1067549E+00
        -11   -1    0    0    0    0  0.00000000000E+00  0.00000000000E+00  0.18250000000E+03  0.18250000000E+03  0.00000000000E+00 0.  1.
         11   -1    0    0    0    0 -0.00000000000E+00 -0.00000000000E+00 -0.18250000000E+03  0.18250000000E+03  0.00000000000E+00 0. -1.
         23    2    1    2    0    0  0.13938978912E+02  0.16871795049E+02 -0.15587466453E+03  0.18135759241E+03  0.90081700044E+02 0.  0.
         23    2    1    2    0    0 -0.13938978912E+02 -0.16871795049E+02  0.15587466453E+03  0.18364240759E+03  0.94597411289E+02 0.  0.
        -11    1    4    4    0    0  0.30226026648E+02  0.86381773143E+01  0.17086859994E+02  0.35779764933E+02  0.00000000000E+00 0. -1.
         11    1    4    4    0    0 -0.44165005560E+02 -0.25509972363E+02  0.13878780453E+03  0.14786264266E+03  0.00000000000E+00 0.  1.
        -15    1    3    3    0    0  0.14454172988E+02 -0.25492408569E+02 -0.12615940163E+02  0.31954744352E+02  0.17770000000E+01 0.  1.
         15    1    3    3    0    0 -0.51519407555E+00  0.42364203618E+02 -0.14325872436E+03  0.14940284806E+03  0.17770000000E+01 0. -1.
</event>
<event>
 8    1  0.1798472E-005  0.1826604E+03  0.7546771E-02  0.1068327E+00
        -11   -1    0    0    0    0  0.00000000000E+00  0.00000000000E+00  0.18250000000E+03  0.18250000000E+03  0.00000000000E+00 0.  1.
         11   -1    0    0    0    0 -0.00000000000E+00 -0.00000000000E+00 -0.18250000000E+03  0.18250000000E+03  0.00000000000E+00 0. -1.
         23    2    1    2    0    0 -0.69010673407E+02 -0.15682242756E+02 -0.14174006810E+03  0.18266042935E+03  0.90918533665E+02 0.  0.
         23    2    1    2    0    0  0.69010673407E+02  0.15682242756E+02  0.14174006810E+03  0.18233957065E+03  0.90272179199E+02 0.  0.
        -11    1    4    4    0    0  0.61187786393E+02  0.20879136291E+02  0.15392720300E+03  0.16695348861E+03  0.00000000000E+00 0.  1.
         11    1    4    4    0    0  0.78228870141E+01 -0.51968935341E+01 -0.12187134896E+02  0.15386082042E+02  0.00000000000E+00 0. -1.
        -15    1    3    3    0    0 -0.87021611001E+02 -0.17073957473E+02 -0.13812484552E+03  0.16415209863E+03  0.17770000000E+01 0. -1.
         15    1    3    3    0    0  0.18010937594E+02  0.13917147168E+01 -0.36152225808E+01  0.18508330724E+02  0.17770000000E+01 0.  1.
</event>
<event>
 8    1  0.1798472E-005  0.1835660E+03  0.7546771E-02  0.1067609E+00
        -11   -1    0    0    0    0  0.00000000000E+00  0.00000000000E+00  0.18250000000E+03  0.18250000000E+03  0.00000000000E+00 0. -1.
         11   -1    0    0    0    0 -0.00000000000E+00 -0.00000000000E+00 -0.18250000000E+03  0.18250000000E+03  0.00000000000E+00 0.  1.
         23    2    1    2    0    0 -0.87164948768E+02  0.12901179424E+03  0.18579990200E+02  0.18356601294E+03  0.95443667807E+02 0.  0.
         23    2    1    2    0    0  0.87164948768E+02 -0.12901179424E+03 -0.18579990200E+02  0.18143398706E+03  0.91275978645E+02 0.  0.
        -11    1    4    4    0    0  0.20411969268E+02 -0.10872292286E+03 -0.86091942539E+01  0.11095693160E+03  0.00000000000E+00 0. -1.
         11    1    4    4    0    0  0.66752979499E+02 -0.20288871377E+02 -0.99707959462E+01  0.70477055455E+02  0.00000000000E+00 0.  1.
        -15    1    3    3    0    0  0.14083213024E+01  0.52905252397E+02  0.37989342360E+02  0.65171289400E+02  0.17770000000E+01 0. -1.
         15    1    3    3    0    0 -0.88573270070E+02  0.76106541843E+02 -0.19409352160E+02  0.11839472354E+03  0.17770000000E+01 0.  1.
</event>
<event>
 8    1  0.1798472E-005  0.1825806E+03  0.7546771E-02  0.1068391E+00
        -11   -1    0    0    0    0  0.00000000000E+00  0.00000000000E+00  0.18250000000E+03  0.18250000000E+03  0.00000000000E+00 0.  1.
         11   -1    0    0    0    0 -0.00000000000E+00 -0.00000000000E+00 -0.18250000000E+03  0.18250000000E+03  0.00000000000E+00 0. -1.
         23    2    1    2    0    0 -0.14492154490E+03  0.29973248238E+02 -0.55873270338E+02  0.18241943215E+03  0.90853602593E+02 0.  0.
         23    2    1    2    0    0  0.14492154490E+03 -0.29973248238E+02  0.55873270338E+02  0.18258056785E+03  0.91176705536E+02 0.  0.
        -11    1    4    4    0    0  0.14193638931E+03 -0.16272720284E+02  0.20246420679E+02  0.14429365054E+03  0.00000000000E+00 0.  1.
         11    1    4    4    0    0  0.29851555816E+01 -0.13700527954E+02  0.35626849658E+02  0.38286917304E+02  0.00000000000E+00 0. -1.
        -15    1    3    3    0    0  0.12539741493E+01  0.16736035630E+02 -0.28473912121E+02  0.33099678854E+02  0.17770000000E+01 0.  1.
         15    1    3    3    0    0 -0.14617551904E+03  0.13237212607E+02 -0.27399358217E+02  0.14931975330E+03  0.17770000000E+01 0. -1.
</event>
<event>
 8    1  0.1798472E-005  0.1845899E+03  0.7546771E-02  0.1066803E+00
        -11   -1    0    0    0    0  0.00000000000E+00  0.00000000000E+00  0.18250000000E+03  0.18250000000E+03  0.00000000000E+00 0.  1.
         11   -1    0    0    0    0 -0.00000000000E+00 -0.00000000000E+00 -0.18250000000E+03  0.18250000000E+03  0.00000000000E+00 0. -1.
         23    2    1    2    0    0  0.10312816417E+02 -0.34660513209E+02 -0.15613461117E+03  0.18041013056E+03  0.82837751327E+02 0.  0.
         23    2    1    2    0    0 -0.10312816417E+02  0.34660513209E+02  0.15613461117E+03  0.18458986944E+03  0.91584374964E+02 0.  0.
        -11    1    4    4    0    0  0.35218958759E+02  0.39020720731E+02  0.78205773816E+02  0.94229160882E+02  0.00000000000E+00 0.  1.
         11    1    4    4    0    0 -0.45531775176E+02 -0.43602075219E+01  0.77928837352E+02  0.90360708560E+02  0.00000000000E+00 0. -1.
        -15    1    3    3    0    0  0.10230740836E+02 -0.13434527011E+02 -0.15810926206E+03  0.15901839847E+03  0.17770000000E+01 0. -1.
         15    1    3    3    0    0  0.82075581705E-01 -0.21225986198E+02  0.19746508934E+01  0.21391732086E+02  0.17770000000E+01 0.  1.
</event>
<event>
 8    1  0.1798472E-005  0.1829207E+03  0.7546771E-02  0.1068120E+00
        -11   -1    0    0    0    0  0.00000000000E+00  0.00000000000E+00  0.18250000000E+03  0.18250000000E+03  0.00000000000E+00 0.  1.
         11   -1    0    0    0    0 -0.00000000000E+00 -0.00000000000E+00 -0.18250000000E+03  0.18250000000E+03  0.00000000000E+00 0. -1.
         23    2    1    2    0    0  0.10156013743E+03 -0.50857599676E+01  0.12031459188E+03  0.18292068814E+03  0.92973386846E+02 0.  0.
         23    2    1    2    0    0 -0.10156013743E+03  0.50857599676E+01 -0.12031459188E+03  0.18207931186E+03  0.91306890855E+02 0.  0.
        -11    1    4    4    0    0 -0.81006733299E+02 -0.29117066722E+02 -0.11210281056E+03  0.14133978403E+03  0.00000000000E+00 0. -1.
         11    1    4    4    0    0 -0.20553404128E+02  0.34202826690E+02 -0.82117813200E+01  0.40739527823E+02  0.00000000000E+00 0.  1.
        -15    1    3    3    0    0  0.11206433995E+03 -0.21885666730E+02  0.11556623260E+03  0.16246879867E+03  0.17770000000E+01 0.  1.
         15    1    3    3    0    0 -0.10504202526E+02  0.16799906762E+02  0.47483592892E+01  0.20451889469E+02  0.17770000000E+01 0. -1.
</event>
<event>
 8    1  0.1798472E-005  0.1872976E+03  0.7546771E-02  0.1064699E+00
        -11   -1    0    0    0    0  0.00000000000E+00  0.00000000000E+00  0.18250000000E+03  0.18250000000E+03  0.00000000000E+00 0.  1.
         11   -1    0    0    0    0 -0.00000000000E+00 -0.00000000000E+00 -0.18250000000E+03  0.18250000000E+03  0.00000000000E+00 0. -1.
         23    2    1    2    0    0 -0.37312209829E+01  0.96513351747E+02 -0.11975419696E+03  0.17770243173E+03  0.88928833779E+02 0.  0.
         23    2    1    2    0    0  0.37312209829E+01 -0.96513351747E+02  0.11975419696E+03  0.18729756827E+03  0.10682023363E+03 0.  0.
        -11    1    4    4    0    0 -0.35215346917E+01 -0.42205796202E+02  0.12526534153E+03  0.13223137384E+03  0.00000000000E+00 0.  1.
         11    1    4    4    0    0  0.72527556746E+01 -0.54307555545E+02 -0.55111445646E+01  0.55066194426E+02  0.00000000000E+00 0. -1.
        -15    1    3    3    0    0 -0.45820425530E+02  0.47797631039E+02 -0.51882692296E+02  0.84137366357E+02  0.17770000000E+01 0. -1.
         15    1    3    3    0    0  0.42089204547E+02  0.48715720708E+02 -0.67871504669E+02  0.93565065374E+02  0.17770000000E+01 0.  1.
</event>
<event>
 8    1  0.1798472E-005  0.1828422E+03  0.7546771E-02  0.1068183E+00
        -11   -1    0    0    0    0  0.00000000000E+00  0.00000000000E+00  0.18250000000E+03  0.18250000000E+03  0.00000000000E+00 0.  1.
         11   -1    0    0    0    0 -0.00000000000E+00 -0.00000000000E+00 -0.18250000000E+03  0.18250000000E+03  0.00000000000E+00 0. -1.
         23    2    1    2    0    0 -0.16502890111E+02 -0.46923658144E+02  0.14885201778E+03  0.18284224121E+03  0.93809311369E+02 0.  0.
         23    2    1    2    0    0  0.16502890111E+02  0.46923658144E+02 -0.14885201778E+03  0.18215775879E+03  0.92468107020E+02 0.  0.
        -11    1    4    4    0    0  0.31287284095E+02 -0.15067991674E+02 -0.24735319884E+02  0.42635367583E+02  0.00000000000E+00 0.  1.
         11    1    4    4    0    0 -0.14784393984E+02  0.61991649819E+02 -0.12411669789E+03  0.13952239121E+03  0.00000000000E+00 0. -1.
        -15    1    3    3    0    0 -0.50433510553E+01 -0.62217220184E+02  0.15112161804E+03  0.16351550094E+03  0.17770000000E+01 0.  1.
         15    1    3    3    0    0 -0.11459539055E+02  0.15293562040E+02 -0.22696002690E+01  0.19326740274E+02  0.17770000000E+01 0. -1.
</event>
<event>
 8    1  0.1798472E-005  0.1832806E+03  0.7546771E-02  0.1067835E+00
        -11   -1    0    0    0    0  0.00000000000E+00  0.00000000000E+00  0.18250000000E+03  0.18250000000E+03  0.00000000000E+00 0.  1.
         11   -1    0    0    0    0 -0.00000000000E+00 -0.00000000000E+00 -0.18250000000E+03  0.18250000000E+03  0.00000000000E+00 0. -1.
         23    2    1    2    0    0  0.12209822612E+02 -0.92165627899E+02 -0.12650363590E+03  0.18328061554E+03  0.94578176143E+02 0.  0.
         23    2    1    2    0    0 -0.12209822612E+02  0.92165627899E+02  0.12650363590E+03  0.18171938446E+03  0.91516020788E+02 0.  0.
        -11    1    4    4    0    0 -0.59777128435E+01 -0.99319127658E+01  0.56725917287E+02  0.57898235155E+02  0.00000000000E+00 0.  1.
         11    1    4    4    0    0 -0.62321097685E+01  0.10209754066E+03  0.69777718608E+02  0.12382114931E+03  0.00000000000E+00 0. -1.
        -15    1    3    3    0    0 -0.40593925185E+02 -0.30999749239E+02 -0.40058008483E+02  0.64935760467E+02  0.17770000000E+01 0. -1.
         15    1    3    3    0    0  0.52803747797E+02 -0.61165878659E+02 -0.86445627412E+02  0.11834485507E+03  0.17770000000E+01 0.  1.
</event>
<event>
 8    1  0.1798472E-005  0.1841551E+03  0.7546771E-02  0.1067145E+00
        -11   -1    0    0    0    0  0.00000000000E+00  0.00000000000E+00  0.18250000000E+03  0.18250000000E+03  0.00000000000E+00 0. -1.
         11   -1    0    0    0    0 -0.00000000000E+00 -0.00000000000E+00 -0.18250000000E+03  0.18250000000E+03  0.00000000000E+00 0.  1.
         23    2    1    2    0    0  0.41831685719E+02  0.32911013160E+02 -0.15112600454E+03  0.18415514563E+03  0.90780084243E+02 0.  0.
         23    2    1    2    0    0 -0.41831685719E+02 -0.32911013160E+02  0.15112600454E+03  0.18084485437E+03  0.83861596606E+02 0.  0.
        -11    1    4    4    0    0 -0.15078204670E+02 -0.47470092815E+02  0.35215094130E+02  0.60998891978E+02  0.00000000000E+00 0. -1.
         11    1    4    4    0    0 -0.26753481049E+02  0.14559079655E+02  0.11591091041E+03  0.11984596239E+03  0.00000000000E+00 0.  1.
        -15    1    3    3    0    0 -0.10086459654E+02  0.32391761788E+02 -0.11740053040E+03  0.12221704124E+03  0.17770000000E+01 0.  1.
         15    1    3    3    0    0  0.51918145373E+02  0.51925137170E+00 -0.33725474139E+02  0.61938104394E+02  0.17770000000E+01 0. -1.
</event>
<event>
 8    1  0.1798472E-005  0.1826636E+03  0.7546771E-02  0.1068325E+00
        -11   -1    0    0    0    0  0.00000000000E+00  0.00000000000E+00  0.18250000000E+03  0.18250000000E+03  0.00000000000E+00 0. -1.
         11   -1    0    0    0    0 -0.00000000000E+00 -0.00000000000E+00 -0.18250000000E+03  0.18250000000E+03  0.00000000000E+00 0.  1.
         23    2    1    2    0    0  0.10036506051E+03  0.87733231229E+02 -0.85018605626E+02  0.18233642522E+03  0.90819289935E+02 0.  0.
         23    2    1    2    0    0 -0.10036506051E+03 -0.87733231229E+02  0.85018605626E+02  0.18266357478E+03  0.91474329818E+02 0.  0.
        -11    1    4    4    0    0 -0.65645826598E+02 -0.94353325528E+02  0.91267298178E+02  0.14677072019E+03  0.00000000000E+00 0. -1.
         11    1    4    4    0    0 -0.34719233917E+02  0.66200942989E+01 -0.62486925512E+01  0.35892854594E+02  0.00000000000E+00 0.  1.
        -15    1    3    3    0    0  0.48302275842E+02  0.61152632807E+02 -0.95129804210E+02  0.12298614446E+03  0.17770000000E+01 0.  1.
         15    1    3    3    0    0  0.52062784673E+02  0.26580598423E+02  0.10111198583E+02  0.59350280759E+02  0.17770000000E+01 0. -1.
</event>
<event>
 8    1  0.1798472E-005  0.1825401E+03  0.7546771E-02  0.1068423E+00
        -11   -1    0    0    0    0  0.00000000000E+00  0.00000000000E+00  0.18250000000E+03  0.18250000000E+03  0.00000000000E+00 0.  1.
         11   -1    0    0    0    0 -0.00000000000E+00 -0.00000000000E+00 -0.18250000000E+03  0.18250000000E+03  0.00000000000E+00 0. -1.
         23    2    1    2    0    0  0.11623026000E+03 -0.10458959977E+03  0.24875667505E+02  0.18254013194E+03  0.90849563641E+02 0.  0.
         23    2    1    2    0    0 -0.11623026000E+03  0.10458959977E+03 -0.24875667505E+02  0.18245986806E+03  0.90688184993E+02 0.  0.
        -11    1    4    4    0    0 -0.13112384904E+03  0.10021154594E+03 -0.25123573321E+02  0.16693415367E+03  0.00000000000E+00 0. -1.
         11    1    4    4    0    0  0.14893589039E+02  0.43780538368E+01  0.24790581582E+00  0.15525714385E+02  0.00000000000E+00 0.  1.
        -15    1    3    3    0    0  0.10541815709E+03 -0.11632901044E+03  0.38307745878E+02  0.16160466465E+03  0.17770000000E+01 0.  1.
         15    1    3    3    0    0  0.10812102912E+02  0.11739410665E+02 -0.13432078372E+02  0.20935467288E+02  0.17770000000E+01 0. -1.
</event>
<event>
 8    1  0.1798472E-005  0.1848930E+03  0.7546771E-02  0.1066566E+00
        -11   -1    0    0    0    0  0.00000000000E+00  0.00000000000E+00  0.18250000000E+03  0.18250000000E+03  0.00000000000E+00 0. -1.
         11   -1    0    0    0    0 -0.00000000000E+00 -0.00000000000E+00 -0.18250000000E+03  0.18250000000E+03  0.00000000000E+00 0.  1.
         23    2    1    2    0    0  0.10617704531E+02 -0.97119187997E+02 -0.12784647442E+03  0.18010702010E+03  0.80925554317E+02 0.  0.
         23    2    1    2    0    0 -0.10617704531E+02  0.97119187997E+02  0.12784647442E+03  0.18489297990E+03  0.91081395838E+02 0.  0.
        -11    1    4    4    0    0 -0.50229452851E+01 -0.17721038955E+02  0.21027500927E+02  0.27953908424E+02  0.00000000000E+00 0.  1.
         11    1    4    4    0    0 -0.55947592463E+01  0.11484022695E+03  0.10681897349E+03  0.15693907147E+03  0.00000000000E+00 0. -1.
        -15    1    3    3    0    0  0.29529566053E+02 -0.92213601480E+02 -0.12797641464E+03  0.16048820518E+03  0.17770000000E+01 0.  1.
         15    1    3    3    0    0 -0.18911861521E+02 -0.49055865170E+01  0.12994022433E+00  0.19618814917E+02  0.17770000000E+01 0. -1.
</event>
<event>
 7    1  0.2142941E-005  0.3650000E+03  0.7546771E-02  0.9765871E-01
        -11   -1    0    0    0    0  0.00000000000E+00  0.00000000000E+00  0.18250000000E+03  0.18250000000E+03  0.00000000000E+00 0.  1.
         11   -1    0    0    0    0 -0.00000000000E+00 -0.00000000000E+00 -0.18250000000E+03  0.18250000000E+03  0.00000000000E+00 0. -1.
         23    2    1    2    0    0  0.11308374341E+02  0.44207195256E+02 -0.12092345899E+03  0.15848454923E+03  0.91720848062E+02 0.  0.
        -11    1    3    3    0    0  0.11690502232E+02  0.72853193151E+02 -0.88127439505E+02  0.11493781444E+03  0.00000000000E+00 0. -1.
         11    1    3    3    0    0 -0.38212789117E+00 -0.28645997895E+02 -0.32796019483E+02  0.43546734792E+02  0.00000000000E+00 0.  1.
        -15    1    1    2    0    0  0.46461937663E+02 -0.11261140006E+02  0.13078507988E+03  0.13926025914E+03  0.17770000000E+01 0.  1.
         15    1    1    2    0    0 -0.57770312004E+02 -0.32946055250E+02 -0.98616208955E+01  0.67255191631E+02  0.17770000000E+01 0. -1.
</event>
<event>
 8    1  0.1798472E-005  0.1831688E+03  0.7546771E-02  0.1067924E+00
        -11   -1    0    0    0    0  0.00000000000E+00  0.00000000000E+00  0.18250000000E+03  0.18250000000E+03  0.00000000000E+00 0.  1.
         11   -1    0    0    0    0 -0.00000000000E+00 -0.00000000000E+00 -0.18250000000E+03  0.18250000000E+03  0.00000000000E+00 0. -1.
         23    2    1    2    0    0 -0.87255954872E+02  0.11358126186E+03  0.67231020705E+02  0.18316876214E+03  0.92284779744E+02 0.  0.
         23    2    1    2    0    0  0.87255954872E+02 -0.11358126186E+03 -0.67231020705E+02  0.18183123786E+03  0.89600693129E+02 0.  0.
        -11    1    4    4    0    0  0.10029922345E+03 -0.11091352423E+03 -0.74055083451E+02  0.16687090659E+03  0.00000000000E+00 0.  1.
         11    1    4    4    0    0 -0.13043268579E+02 -0.26677376373E+01  0.68240627452E+01  0.14960331269E+02  0.00000000000E+00 0. -1.
        -15    1    3    3    0    0 -0.11531085333E+02 -0.15157649113E+02 -0.55972553747E+00  0.19136124928E+02  0.17770000000E+01 0.  1.
         15    1    3    3    0    0 -0.75724869539E+02  0.12873891098E+03  0.67790746243E+02  0.16403263721E+03  0.17770000000E+01 0. -1.
</event>
<event>
 8    1  0.1798472E-005  0.1836582E+03  0.7546771E-02  0.1067537E+00
        -11   -1    0    0    0    0  0.00000000000E+00  0.00000000000E+00  0.18250000000E+03  0.18250000000E+03  0.00000000000E+00 0. -1.
         11   -1    0    0    0    0 -0.00000000000E+00 -0.00000000000E+00 -0.18250000000E+03  0.18250000000E+03  0.00000000000E+00 0.  1.
         23    2    1    2    0    0  0.23830165498E+02 -0.99863029281E+01 -0.15481711245E+03  0.18365823740E+03  0.95364599410E+02 0.  0.
         23    2    1    2    0    0 -0.23830165498E+02  0.99863029281E+01  0.15481711245E+03  0.18134176260E+03  0.90823419457E+02 0.  0.
        -11    1    4    4    0    0  0.41474121423E+01  0.35131039978E+02  0.18481397559E+02  0.39911815959E+02  0.00000000000E+00 0.  1.
         11    1    4    4    0    0 -0.27977577640E+02 -0.25144737050E+02  0.13633571490E+03  0.14142994664E+03  0.00000000000E+00 0. -1.
        -15    1    3    3    0    0 -0.18716383537E+02 -0.39946477507E+02 -0.50561807944E+02  0.67124349006E+02  0.17770000000E+01 0. -1.
         15    1    3    3    0    0  0.42546549035E+02  0.29960174579E+02 -0.10425530451E+03  0.11653388839E+03  0.17770000000E+01 0.  1.
</event>
<event>
 8    1  0.1798472E-005  0.1840282E+03  0.7546771E-02  0.1067245E+00
        -11   -1    0    0    0    0  0.00000000000E+00  0.00000000000E+00  0.18250000000E+03  0.18250000000E+03  0.00000000000E+00 0.  1.
         11   -1    0    0    0    0 -0.00000000000E+00 -0.00000000000E+00 -0.18250000000E+03  0.18250000000E+03  0.00000000000E+00 0. -1.
         23    2    1    2    0    0 -0.11059508391E+02 -0.60472141707E+02 -0.14395813956E+03  0.18097184735E+03  0.90816688672E+02 0.  0.
         23    2    1    2    0    0  0.11059508391E+02  0.60472141707E+02  0.14395813956E+03  0.18402815265E+03  0.96763745140E+02 0.  0.
        -11    1    4    4    0    0  0.39311432405E+02  0.72322337327E+02  0.11799153905E+03  0.14386769089E+03  0.00000000000E+00 0.  1.
         11    1    4    4    0    0 -0.28251924014E+02 -0.11850195621E+02  0.25966600505E+02  0.40160461757E+02  0.00000000000E+00 0. -1.
        -15    1    3    3    0    0 -0.15151367889E+02 -0.54011395708E+02 -0.24471435691E+02  0.61227475115E+02  0.17770000000E+01 0. -1.
         15    1    3    3    0    0  0.40918594981E+01 -0.64607459990E+01 -0.11948670387E+03  0.11974437224E+03  0.17770000000E+01 0.  1.
</event>
<event>
 8    1  0.1798472E-005  0.1839026E+03  0.7546771E-02  0.1067344E+00
        -11   -1    0    0    0    0  0.00000000000E+00  0.00000000000E+00  0.18250000000E+03  0.18250000000E+03  0.00000000000E+00 0.  1.
         11   -1    0    0    0    0 -0.00000000000E+00 -0.00000000000E+00 -0.18250000000E+03  0.18250000000E+03  0.00000000000E+00 0. -1.
         23    2    1    2    0    0  0.34552547035E+01 -0.38445653206E+02 -0.15157235119E+03  0.18390260338E+03  0.96726329653E+02 0.  0.
         23    2    1    2    0    0 -0.34552547035E+01  0.38445653206E+02  0.15157235119E+03  0.18109739662E+03  0.91280240910E+02 0.  0.
        -11    1    4    4    0    0  0.93422862635E+01  0.28722210788E+02  0.15781806688E+01  0.30244575702E+02  0.00000000000E+00 0. -1.
         11    1    4    4    0    0 -0.12797540967E+02  0.97234424179E+01  0.14999417053E+03  0.15085282092E+03  0.00000000000E+00 0.  1.
        -15    1    3    3    0    0  0.30425955732E+02  0.88785335059E+01 -0.11775694496E+02  0.33858408841E+02  0.17770000000E+01 0.  1.
         15    1    3    3    0    0 -0.26970701028E+02 -0.47324186712E+02 -0.13979665670E+03  0.15004419454E+03  0.17770000000E+01 0. -1.
</event>
<event>
 8    1  0.1798472E-005  0.1832087E+03  0.7546771E-02  0.1067892E+00
        -11   -1    0    0    0    0  0.00000000000E+00  0.00000000000E+00  0.18250000000E+03  0.18250000000E+03  0.00000000000E+00 0.  1.
         11   -1    0    0    0    0 -0.00000000000E+00 -0.00000000000E+00 -0.18250000000E+03  0.18250000000E+03  0.00000000000E+00 0. -1.
         23    2    1    2    0    0  0.32749401968E+02  0.28761455683E+02 -0.15275113730E+03  0.18179127977E+03  0.88404834650E+02 0.  0.
         23    2    1    2    0    0 -0.32749401968E+02 -0.28761455683E+02  0.15275113730E+03  0.18320872023E+03  0.91284065197E+02 0.  0.
        -11    1    4    4    0    0  0.40694227267E+01 -0.11476536391E+02 -0.98097305117E+01  0.15636556577E+02  0.00000000000E+00 0. -1.
         11    1    4    4    0    0 -0.36818824695E+02 -0.17284919292E+02  0.16256086782E+03  0.16757216366E+03  0.00000000000E+00 0.  1.
        -15    1    3    3    0    0 -0.16791951083E+02  0.42498831040E+02 -0.56807630776E+02  0.72927257622E+02  0.17770000000E+01 0.  1.
         15    1    3    3    0    0  0.49541353050E+02 -0.13737375356E+02 -0.95943506529E+02  0.10886402215E+03  0.17770000000E+01 0. -1.
</event>
<event>
 8    1  0.1798472E-005  0.1836584E+03  0.7546771E-02  0.1067536E+00
        -11   -1    0    0    0    0  0.00000000000E+00  0.00000000000E+00  0.18250000000E+03  0.18250000000E+03  0.00000000000E+00 0.  1.
         11   -1    0    0    0    0 -0.00000000000E+00 -0.00000000000E+00 -0.18250000000E+03  0.18250000000E+03  0.00000000000E+00 0. -1.
         23    2    1    2    0    0  0.53985576707E+02  0.12644167135E+02 -0.14895524712E+03  0.18134155066E+03  0.87308504145E+02 0.  0.
         23    2    1    2    0    0 -0.53985576707E+02 -0.12644167135E+02  0.14895524712E+03  0.18365844934E+03  0.92024143109E+02 0.  0.
        -11    1    4    4    0    0 -0.61901607098E+02  0.13701338532E+02  0.14165743327E+03  0.15519782227E+03  0.00000000000E+00 0.  1.
         11    1    4    4    0    0  0.79160303907E+01 -0.26345505667E+02  0.72978138522E+01  0.28460627066E+02  0.00000000000E+00 0. -1.
        -15    1    3    3    0    0  0.34962856587E+02  0.35174350070E+02 -0.28312498984E+02  0.57134854259E+02  0.17770000000E+01 0. -1.
         15    1    3    3    0    0  0.19022720121E+02 -0.22530182935E+02 -0.12064274814E+03  0.12420669640E+03  0.17770000000E+01 0.  1.
</event>
<event>
 8    1  0.1798472E-005  0.1827833E+03  0.7546771E-02  0.1068230E+00
        -11   -1    0    0    0    0  0.00000000000E+00  0.00000000000E+00  0.18250000000E+03  0.18250000000E+03  0.00000000000E+00 0.  1.
         11   -1    0    0    0    0 -0.00000000000E+00 -0.00000000000E+00 -0.18250000000E+03  0.18250000000E+03  0.00000000000E+00 0. -1.
         23    2    1    2    0    0 -0.23943967636E+02 -0.55461097521E+02  0.14652318591E+03  0.18221673673E+03  0.89914671833E+02 0.  0.
         23    2    1    2    0    0  0.23943967636E+02  0.55461097521E+02 -0.14652318591E+03  0.18278326327E+03  0.91057291852E+02 0.  0.
        -11    1    4    4    0    0 -0.14610159039E+02  0.59189181121E+02 -0.12348761079E+03  0.13771712286E+03  0.00000000000E+00 0. -1.
         11    1    4    4    0    0  0.38554126675E+02 -0.37280835999E+01 -0.23035575117E+02  0.45066140416E+02  0.00000000000E+00 0.  1.
        -15    1    3    3    0    0 -0.32367752236E+02 -0.67009286073E+02  0.14995062012E+03  0.16741045968E+03  0.17770000000E+01 0.  1.
         15    1    3    3    0    0  0.84237846002E+01  0.11548188552E+02 -0.34274342156E+01  0.14806277051E+02  0.17770000000E+01 0. -1.
</event>
<event>
 8    1  0.1798472E-005  0.1840911E+03  0.7546771E-02  0.1067195E+00
        -11   -1    0    0    0    0  0.00000000000E+00  0.00000000000E+00  0.18250000000E+03  0.18250000000E+03  0.00000000000E+00 0. -1.
         11   -1    0    0    0    0 -0.00000000000E+00 -0.00000000000E+00 -0.18250000000E+03  0.18250000000E+03  0.00000000000E+00 0.  1.
         23    2    1    2    0    0  0.20655041044E+02  0.56972731212E+02  0.14766949082E+03  0.18409108635E+03  0.91710014354E+02 0.  0.
         23    2    1    2    0    0 -0.20655041044E+02 -0.56972731212E+02 -0.14766949082E+03  0.18090891365E+03  0.85142431819E+02 0.  0.
        -11    1    4    4    0    0  0.22241812827E+02  0.10418134141E+02 -0.32148964852E+02  0.40457282383E+02  0.00000000000E+00 0. -1.
         11    1    4    4    0    0 -0.42896853871E+02 -0.67390865353E+02 -0.11552052597E+03  0.14045163126E+03  0.00000000000E+00 0.  1.
        -15    1    3    3    0    0  0.47139650000E+02  0.48743095993E+01  0.91252865533E+02  0.10284040399E+03  0.17770000000E+01 0. -1.
         15    1    3    3    0    0 -0.26484608957E+02  0.52098421613E+02  0.56416625287E+02  0.81250682360E+02  0.17770000000E+01 0.  1.
</event>
<event>
 8    1  0.1798472E-005  0.1829406E+03  0.7546771E-02  0.1068105E+00
        -11   -1    0    0    0    0  0.00000000000E+00  0.00000000000E+00  0.18250000000E+03  0.18250000000E+03  0.00000000000E+00 0.  1.
         11   -1    0    0    0    0 -0.00000000000E+00 -0.00000000000E+00 -0.18250000000E+03  0.18250000000E+03  0.00000000000E+00 0. -1.
         23    2    1    2    0    0 -0.70437306854E+02  0.13500806996E+03 -0.38302336034E+02  0.18294060684E+03  0.93870141860E+02 0.  0.
         23    2    1    2    0    0  0.70437306854E+02 -0.13500806996E+03  0.38302336034E+02  0.18205939316E+03  0.92140981885E+02 0.  0.
        -11    1    4    4    0    0  0.52399049687E+02 -0.12343930149E+02  0.79763174944E+01  0.54421086541E+02  0.00000000000E+00 0.  1.
         11    1    4    4    0    0  0.18038257168E+02 -0.12266413981E+03  0.30326018539E+02  0.12763830662E+03  0.00000000000E+00 0. -1.
        -15    1    3    3    0    0 -0.43410261706E+02  0.18752767903E+02  0.18420884330E+02  0.50779955040E+02  0.17770000000E+01 0.  1.
         15    1    3    3    0    0 -0.27027045148E+02  0.11625530206E+03 -0.56723220363E+02  0.13216065180E+03  0.17770000000E+01 0. -1.
</event>
<event>
 8    1  0.1798472E-005  0.1839260E+03  0.7546771E-02  0.1067325E+00
        -11   -1    0    0    0    0  0.00000000000E+00  0.00000000000E+00  0.18250000000E+03  0.18250000000E+03  0.00000000000E+00 0.  1.
         11   -1    0    0    0    0 -0.00000000000E+00 -0.00000000000E+00 -0.18250000000E+03  0.18250000000E+03  0.00000000000E+00 0. -1.
         23    2    1    2    0    0  0.13830521053E+03 -0.76844780435E+02  0.14396975402E+02  0.18107396769E+03  0.86873801190E+02 0.  0.
         23    2    1    2    0    0 -0.13830521053E+03  0.76844780435E+02 -0.14396975402E+02  0.18392603231E+03  0.92671791402E+02 0.  0.
        -11    1    4    4    0    0 -0.14934482465E+03  0.57444000588E+02 -0.61506308707E+01  0.16012969779E+03  0.00000000000E+00 0.  1.
         11    1    4    4    0    0  0.11039614122E+02  0.19400779847E+02 -0.82463445315E+01  0.23796334524E+02  0.00000000000E+00 0. -1.
        -15    1    3    3    0    0  0.25811153522E+02  0.14065055429E+02  0.21171230166E+02  0.36268721319E+02  0.17770000000E+01 0.  1.
         15    1    3    3    0    0  0.11249405701E+03 -0.90909835864E+02 -0.67742547641E+01  0.14480524637E+03  0.17770000000E+01 0. -1.
</event>
<event>
 8    1  0.1798472E-005  0.1829634E+03  0.7546771E-02  0.1068087E+00
        -11   -1    0    0    0    0  0.00000000000E+00  0.00000000000E+00  0.18250000000E+03  0.18250000000E+03  0.00000000000E+00 0. -1.
         11   -1    0    0    0    0 -0.00000000000E+00 -0.00000000000E+00 -0.18250000000E+03  0.18250000000E+03  0.00000000000E+00 0.  1.
         23    2    1    2    0    0 -0.10636260442E+03 -0.72325342270E+02 -0.92277400986E+02  0.18203664793E+03  0.89879161671E+02 0.  0.
         23    2    1    2    0    0  0.10636260442E+03  0.72325342270E+02  0.92277400986E+02  0.18296335207E+03  0.91741543016E+02 0.  0.
        -11    1    4    4    0    0  0.40952025220E+02  0.76369224116E+02  0.76413753493E+02  0.11553522616E+03  0.00000000000E+00 0. -1.
         11    1    4    4    0    0  0.65410579201E+02 -0.40438818459E+01  0.15863647492E+02  0.67428125908E+02  0.00000000000E+00 0.  1.
        -15    1    3    3    0    0 -0.43392574207E+02 -0.65114388196E+02 -0.89036696206E+02  0.11854741687E+03  0.17770000000E+01 0. -1.
         15    1    3    3    0    0 -0.62970030214E+02 -0.72109540742E+01 -0.32407047793E+01  0.63489231057E+02  0.17770000000E+01 0.  1.
</event>
<event>
 8    1  0.1798472E-005  0.1828907E+03  0.7546771E-02  0.1068144E+00
        -11   -1    0    0    0    0  0.00000000000E+00  0.00000000000E+00  0.18250000000E+03  0.18250000000E+03  0.00000000000E+00 0.  1.
         11   -1    0    0    0    0 -0.00000000000E+00 -0.00000000000E+00 -0.18250000000E+03  0.18250000000E+03  0.00000000000E+00 0. -1.
         23    2    1    2    0    0 -0.10667248564E+03 -0.10237312335E+03 -0.54113255505E+02  0.18210933421E+03  0.91522071703E+02 0.  0.
         23    2    1    2    0    0  0.10667248564E+03  0.10237312335E+03  0.54113255505E+02  0.18289066579E+03  0.93067049136E+02 0.  0.
        -11    1    4    4    0    0  0.93843416021E+02  0.10850719969E+03  0.18629072967E+02  0.14466320014E+03  0.00000000000E+00 0.  1.
         11    1    4    4    0    0  0.12829069616E+02 -0.61340763373E+01  0.35484182538E+02  0.38227465651E+02  0.00000000000E+00 0. -1.
        -15    1    3    3    0    0 -0.10704914266E+03 -0.51472333154E+02 -0.55583597104E+02  0.13115492374E+03  0.17770000000E+01 0. -1.
         15    1    3    3    0    0  0.37665702410E+00 -0.50900790197E+02  0.14703415989E+01  0.50954410473E+02  0.17770000000E+01 0.  1.
</event>
<event>
 8    1  0.1798472E-005  0.1825358E+03  0.7546771E-02  0.1068426E+00
        -11   -1    0    0    0    0  0.00000000000E+00  0.00000000000E+00  0.18250000000E+03  0.18250000000E+03  0.00000000000E+00 0. -1.
         11   -1    0    0    0    0 -0.00000000000E+00 -0.00000000000E+00 -0.18250000000E+03  0.18250000000E+03  0.00000000000E+00 0.  1.
         23    2    1    2    0    0  0.22822935029E+02 -0.66928846404E+01 -0.15593520927E+03  0.18253578162E+03  0.91857721580E+02 0.  0.
         23    2    1    2    0    0 -0.22822935029E+02  0.66928846404E+01  0.15593520927E+03  0.18246421838E+03  0.91715431800E+02 0.  0.
        -11    1    4    4    0    0 -0.17808855380E+02 -0.41603569662E+02  0.88076890259E+02  0.99022981859E+02  0.00000000000E+00 0. -1.
         11    1    4    4    0    0 -0.50140796497E+01  0.48296454302E+02  0.67858319012E+02  0.83441236520E+02  0.00000000000E+00 0.  1.
        -15    1    3    3    0    0  0.26853341584E+01 -0.17568274772E+02 -0.15844043677E+03  0.15944398712E+03  0.17770000000E+01 0.  1.
         15    1    3    3    0    0  0.20137600871E+02  0.10875390132E+02  0.25052274958E+01  0.23091794498E+02  0.17770000000E+01 0. -1.
</event>
<event>
 8    1  0.1798472E-005  0.1916452E+03  0.7546771E-02  0.1061400E+00
        -11   -1    0    0    0    0  0.00000000000E+00  0.00000000000E+00  0.18250000000E+03  0.18250000000E+03  0.00000000000E+00 0.  1.
         11   -1    0    0    0    0 -0.00000000000E+00 -0.00000000000E+00 -0.18250000000E+03  0.18250000000E+03  0.00000000000E+00 0. -1.
         23    2    1    2    0    0  0.19212656350E+02 -0.17324669963E+02 -0.14465627512E+03  0.19164522827E+03  0.12301701196E+03 0.  0.
         23    2    1    2    0    0 -0.19212656350E+02  0.17324669963E+02  0.14465627512E+03  0.17335477173E+03  0.91962865310E+02 0.  0.
        -11    1    4    4    0    0 -0.24831385717E+02 -0.34765570226E+02  0.73088890008E+02  0.84659485189E+02  0.00000000000E+00 0.  1.
         11    1    4    4    0    0  0.56187293673E+01  0.52090240189E+02  0.71567385116E+02  0.88695286543E+02  0.00000000000E+00 0. -1.
        -15    1    3    3    0    0 -0.44772339724E+02 -0.10762062112E+02 -0.17794567775E+02  0.49398266736E+02  0.17770000000E+01 0.  1.
         15    1    3    3    0    0  0.63984996073E+02 -0.65626078504E+01 -0.12686170735E+03  0.14224696153E+03  0.17770000000E+01 0. -1.
</event>
<event>
 8    1  0.1798472E-005  0.1831430E+03  0.7546771E-02  0.1067944E+00
        -11   -1    0    0    0    0  0.00000000000E+00  0.00000000000E+00  0.18250000000E+03  0.18250000000E+03  0.00000000000E+00 0.  1.
         11   -1    0    0    0    0 -0.00000000000E+00 -0.00000000000E+00 -0.18250000000E+03  0.18250000000E+03  0.00000000000E+00 0. -1.
         23    2    1    2    0    0 -0.30074604069E+02  0.10503773434E+03 -0.11329051208E+03  0.18314304006E+03  0.93644143163E+02 0.  0.
         23    2    1    2    0    0  0.30074604069E+02 -0.10503773434E+03  0.11329051208E+03  0.18185695994E+03  0.91103272757E+02 0.  0.
        -11    1    4    4    0    0 -0.86811890403E+00  0.15956362056E+02  0.21859415231E+02  0.27077539673E+02  0.00000000000E+00 0. -1.
         11    1    4    4    0    0  0.30942722973E+02 -0.12099409640E+03  0.91431096845E+02  0.15477942027E+03  0.00000000000E+00 0.  1.
        -15    1    3    3    0    0 -0.41079297298E+00  0.10594388691E+03 -0.11079643987E+03  0.15330781044E+03  0.17770000000E+01 0. -1.
         15    1    3    3    0    0 -0.29663811096E+02 -0.90615256940E+00 -0.24940722096E+01  0.29835229619E+02  0.17770000000E+01 0.  1.
</event>
<event>
 8    1  0.1798472E-005  0.1848187E+03  0.7546771E-02  0.1066624E+00
        -11   -1    0    0    0    0  0.00000000000E+00  0.00000000000E+00  0.18250000000E+03  0.18250000000E+03  0.00000000000E+00 0.  1.
         11   -1    0    0    0    0 -0.00000000000E+00 -0.00000000000E+00 -0.18250000000E+03  0.18250000000E+03  0.00000000000E+00 0. -1.
         23    2    1    2    0    0  0.23650181056E+02 -0.69627107589E+01 -0.15664332133E+03  0.18481868586E+03  0.94936853339E+02 0.  0.
         23    2    1    2    0    0 -0.23650181056E+02  0.69627107589E+01  0.15664332133E+03  0.18018131414E+03  0.85559134174E+02 0.  0.
        -11    1    4    4    0    0 -0.38855021884E+02  0.10111915820E+02  0.15942825715E+03  0.16440599973E+03  0.00000000000E+00 0.  1.
         11    1    4    4    0    0  0.15204840828E+02 -0.31492050606E+01 -0.27849358230E+01  0.15775314407E+02  0.00000000000E+00 0. -1.
        -15    1    3    3    0    0  0.18651642948E+02  0.14343413444E+02  0.28981798197E+01  0.23773398351E+02  0.17770000000E+01 0.  1.
         15    1    3    3    0    0  0.49985381085E+01 -0.21306124203E+02 -0.15954150115E+03  0.16104528751E+03  0.17770000000E+01 0. -1.
</event>
<event>
 8    1  0.1798472E-005  0.1834387E+03  0.7546771E-02  0.1067710E+00
        -11   -1    0    0    0    0  0.00000000000E+00  0.00000000000E+00  0.18250000000E+03  0.18250000000E+03  0.00000000000E+00 0.  1.
         11   -1    0    0    0    0 -0.00000000000E+00 -0.00000000000E+00 -0.18250000000E+03  0.18250000000E+03  0.00000000000E+00 0. -1.
         23    2    1    2    0    0 -0.56364027583E+01  0.80583614945E+02 -0.13797017457E+03  0.18343865475E+03  0.89935993636E+02 0.  0.
         23    2    1    2    0    0  0.56364027583E+01 -0.80583614945E+02  0.13797017457E+03  0.18156134525E+03  0.86042227918E+02 0.  0.
        -11    1    4    4    0    0  0.21038744194E+02  0.10565787510E+02  0.43037697454E+02  0.49056172141E+02  0.00000000000E+00 0.  1.
         11    1    4    4    0    0 -0.15402341436E+02 -0.91149402456E+02  0.94932477116E+02  0.13250517311E+03  0.00000000000E+00 0. -1.
        -15    1    3    3    0    0 -0.40420943862E+02  0.67857596874E+02 -0.67951812890E+02  0.10420706675E+03  0.17770000000E+01 0. -1.
         15    1    3    3    0    0  0.34784541103E+02  0.12726018071E+02 -0.70018361680E+02  0.79231588000E+02  0.17770000000E+01 0.  1.
</event>
<event>
 8    1  0.1798472E-005  0.1834818E+03  0.7546771E-02  0.1067676E+00
        -11   -1    0    0    0    0  0.00000000000E+00  0.00000000000E+00  0.18250000000E+03  0.18250000000E+03  0.00000000000E+00 0.  1.
         11   -1    0    0    0    0 -0.00000000000E+00 -0.00000000000E+00 -0.18250000000E+03  0.18250000000E+03  0.00000000000E+00 0. -1.
         23    2    1    2    0    0 -0.67443370125E+02  0.55656775698E+02  0.13396666715E+03  0.18348175250E+03  0.89845426931E+02 0.  0.
         23    2    1    2    0    0  0.67443370125E+02 -0.55656775698E+02 -0.13396666715E+03  0.18151824750E+03  0.85764336482E+02 0.  0.
        -11    1    4    4    0    0  0.84591353681E+02 -0.47055551396E+02 -0.12974411023E+03  0.16187481637E+03  0.00000000000E+00 0. -1.
         11    1    4    4    0    0 -0.17147983556E+02 -0.86012243025E+01 -0.42225569183E+01  0.19643431128E+02  0.00000000000E+00 0.  1.
        -15    1    3    3    0    0 -0.76840701894E+02  0.26474917634E+02  0.53406013089E+02  0.97266513736E+02  0.17770000000E+01 0.  1.
         15    1    3    3    0    0  0.93973317695E+01  0.29181858065E+02  0.80560654059E+02  0.86215238768E+02  0.17770000000E+01 0. -1.
</event>
<event>
 8    1  0.1798472E-005  0.1833948E+03  0.7546771E-02  0.1067745E+00
        -11   -1    0    0    0    0  0.00000000000E+00  0.00000000000E+00  0.18250000000E+03  0.18250000000E+03  0.00000000000E+00 0.  1.
         11   -1    0    0    0    0 -0.00000000000E+00 -0.00000000000E+00 -0.18250000000E+03  0.18250000000E+03  0.00000000000E+00 0. -1.
         23    2    1    2    0    0  0.47736080461E+02  0.68222285487E+02  0.13323177814E+03  0.18339482749E+03  0.94604135372E+02 0.  0.
         23    2    1    2    0    0 -0.47736080461E+02 -0.68222285487E+02 -0.13323177814E+03  0.18160517251E+03  0.91086323680E+02 0.  0.
        -11    1    4    4    0    0 -0.67336556778E+02 -0.59694348164E+02 -0.13256173459E+03  0.16021935138E+03  0.00000000000E+00 0. -1.
         11    1    4    4    0    0  0.19600476317E+02 -0.85279373236E+01 -0.67004355200E+00  0.21385821126E+02  0.00000000000E+00 0.  1.
        -15    1    3    3    0    0 -0.25879299743E+02  0.38113153480E+02  0.42219026797E+02  0.62513635122E+02  0.17770000000E+01 0.  1.
         15    1    3    3    0    0  0.73615380204E+02  0.30109132007E+02  0.91012751341E+02  0.12088119237E+03  0.17770000000E+01 0. -1.
</event>
<event>
 8    1  0.1798472E-005  0.1828674E+03  0.7546771E-02  0.1068163E+00
        -11   -1    0    0    0    0  0.00000000000E+00  0.00000000000E+00  0.18250000000E+03  0.18250000000E+03  0.00000000000E+00 0. -1.
         11   -1    0    0    0    0 -0.00000000000E+00 -0.00000000000E+00 -0.18250000000E+03  0.18250000000E+03  0.00000000000E+00 0.  1.
         23    2    1    2    0    0  0.34962847453E+02 -0.14658351854E+03 -0.48476683035E+02  0.18286744602E+03  0.91549906650E+02 0.  0.
         23    2    1    2    0    0 -0.34962847453E+02  0.14658351854E+03  0.48476683035E+02  0.18213255398E+03  0.90073024891E+02 0.  0.
        -11    1    4    4    0    0 -0.55228560975E+02  0.11782340109E+03  0.10784153735E+02  0.13057122869E+03  0.00000000000E+00 0.  1.
         11    1    4    4    0    0  0.20265713522E+02  0.28760117449E+02  0.37692529300E+02  0.51561325286E+02  0.00000000000E+00 0. -1.
        -15    1    3    3    0    0  0.23372708513E+02  0.39079495934E+01  0.16331768187E+01  0.23819751652E+02  0.17770000000E+01 0.  1.
         15    1    3    3    0    0  0.11590138940E+02 -0.15049146813E+03 -0.50109859853E+02  0.15904769437E+03  0.17770000000E+01 0. -1.
</event>
<event>
 8    1  0.1798472E-005  0.1827658E+03  0.7546771E-02  0.1068243E+00
        -11   -1    0    0    0    0  0.00000000000E+00  0.00000000000E+00  0.18250000000E+03  0.18250000000E+03  0.00000000000E+00 0. -1.
         11   -1    0    0    0    0 -0.00000000000E+00 -0.00000000000E+00 -0.18250000000E+03  0.18250000000E+03  0.00000000000E+00 0.  1.
         23    2    1    2    0    0  0.96487774721E+02 -0.11361095897E+02  0.12479865322E+03  0.18276576004E+03  0.91595054613E+02 0.  0.
         23    2    1    2    0    0 -0.96487774721E+02  0.11361095897E+02 -0.12479865322E+03  0.18223423996E+03  0.90529824904E+02 0.  0.
        -11    1    4    4    0    0 -0.25614518494E+02  0.35964815955E+02 -0.10288653555E+02  0.45336827594E+02  0.00000000000E+00 0. -1.
         11    1    4    4    0    0 -0.70873256227E+02 -0.24603720059E+02 -0.11450999966E+03  0.13689741236E+03  0.00000000000E+00 0.  1.
        -15    1    3    3    0    0 -0.78785756395E+01  0.22306981523E+02  0.25267236426E+02  0.34659260586E+02  0.17770000000E+01 0.  1.
         15    1    3    3    0    0  0.10436635036E+03 -0.33668077419E+02  0.99531416789E+02  0.14810649946E+03  0.17770000000E+01 0. -1.
</event>
<event>
 8    1  0.1798472E-005  0.1831927E+03  0.7546771E-02  0.1067905E+00
        -11   -1    0    0    0    0  0.00000000000E+00  0.00000000000E+00  0.18250000000E+03  0.18250000000E+03  0.00000000000E+00 0. -1.
         11   -1    0    0    0    0 -0.00000000000E+00 -0.00000000000E+00 -0.18250000000E+03  0.18250000000E+03  0.00000000000E+00 0.  1.
         23    2    1    2    0    0 -0.64632911755E+01 -0.15810278689E+02 -0.15823778090E+03  0.18180727897E+03  0.87880329637E+02 0.  0.
         23    2    1    2    0    0  0.64632911755E+01  0.15810278689E+02  0.15823778090E+03  0.18319272103E+03  0.90711844252E+02 0.  0.
        -11    1    4    4    0    0  0.19240268115E+02  0.38678649817E+02  0.30712057403E+02  0.53004304908E+02  0.00000000000E+00 0.  1.
         11    1    4    4    0    0 -0.12776976940E+02 -0.22868371128E+02  0.12752572350E+03  0.13018841612E+03  0.00000000000E+00 0. -1.
        -15    1    3    3    0    0  0.15663752357E+01 -0.46695297611E+02 -0.13331911000E+03  0.14128003104E+03  0.17770000000E+01 0.  1.
         15    1    3    3    0    0 -0.80296664112E+01  0.30885018921E+02 -0.24918670903E+02  0.40527247933E+02  0.17770000000E+01 0. -1.
</event>
<event>
 8    1  0.1798472E-005  0.1829601E+03  0.7546771E-02  0.1068089E+00
        -11   -1    0    0    0    0  0.00000000000E+00  0.00000000000E+00  0.18250000000E+03  0.18250000000E+03  0.00000000000E+00 0.  1.
         11   -1    0    0    0    0 -0.00000000000E+00 -0.00000000000E+00 -0.18250000000E+03  0.18250000000E+03  0.00000000000E+00 0. -1.
         23    2    1    2    0    0  0.43762338106E+02 -0.52426882532E+01 -0.15222125559E+03  0.18296005136E+03  0.91435451132E+02 0.  0.
         23    2    1    2    0    0 -0.43762338106E+02  0.52426882532E+01  0.15222125559E+03  0.18203994864E+03  0.89580155326E+02 0.  0.
        -11    1    4    4    0    0 -0.49814783000E+02  0.36168352726E+02  0.66061588321E+02  0.90298370947E+02  0.00000000000E+00 0.  1.
         11    1    4    4    0    0  0.60524448935E+01 -0.30925664473E+02  0.86159667273E+02  0.91741577689E+02  0.00000000000E+00 0. -1.
        -15    1    3    3    0    0  0.62318175344E-01  0.35786709365E+02 -0.88396344363E+02  0.95382198950E+02  0.17770000000E+01 0. -1.
         15    1    3    3    0    0  0.43700019931E+02 -0.41029397618E+02 -0.63824911231E+02  0.87577852414E+02  0.17770000000E+01 0.  1.
</event>
<event>
 8    1  0.1798472E-005  0.1832684E+03  0.7546771E-02  0.1067845E+00
        -11   -1    0    0    0    0  0.00000000000E+00  0.00000000000E+00  0.18250000000E+03  0.18250000000E+03  0.00000000000E+00 0.  1.
         11   -1    0    0    0    0 -0.00000000000E+00 -0.00000000000E+00 -0.18250000000E+03  0.18250000000E+03  0.00000000000E+00 0. -1.
         23    2    1    2    0    0  0.77396306336E+01  0.14157412329E+02 -0.15779969280E+03  0.18326844054E+03  0.91794575242E+02 0.  0.
         23    2    1    2    0    0 -0.77396306336E+01 -0.14157412329E+02  0.15779969280E+03  0.18173155946E+03  0.88686427636E+02 0.  0.
        -11    1    4    4    0    0  0.96064723397E+01 -0.47366635895E+02  0.11561766595E+03  0.12531291708E+03  0.00000000000E+00 0.  1.
         11    1    4    4    0    0 -0.17346102973E+02  0.33209223566E+02  0.42182026855E+02  0.56418642378E+02  0.00000000000E+00 0. -1.
        -15    1    3    3    0    0 -0.31521065111E+02  0.34272885601E+02 -0.60034928730E+02  0.75997096193E+02  0.17770000000E+01 0. -1.
         15    1    3    3    0    0  0.39260695745E+02 -0.20115473272E+02 -0.97764764074E+02  0.10727134435E+03  0.17770000000E+01 0.  1.
</event>
<event>
 8    1  0.1798472E-005  0.1849113E+03  0.7546771E-02  0.1066551E+00
        -11   -1    0    0    0    0  0.00000000000E+00  0.00000000000E+00  0.18250000000E+03  0.18250000000E+03  0.00000000000E+00 0.  1.
         11   -1    0    0    0    0 -0.00000000000E+00 -0.00000000000E+00 -0.18250000000E+03  0.18250000000E+03  0.00000000000E+00 0. -1.
         23    2    1    2    0    0  0.48989188233E+02  0.41374003788E+02 -0.14635880598E+03  0.18491126034E+03  0.93056570747E+02 0.  0.
         23    2    1    2    0    0 -0.48989188233E+02 -0.41374003788E+02  0.14635880598E+03  0.18008873966E+03  0.83062056987E+02 0.  0.
        -11    1    4    4    0    0 -0.52031220680E+02  0.45351575417E+01  0.45646355115E+02  0.69364294234E+02  0.00000000000E+00 0.  1.
         11    1    4    4    0    0  0.30420324469E+01 -0.45909161330E+02  0.10071245087E+03  0.11072444543E+03  0.00000000000E+00 0. -1.
        -15    1    3    3    0    0  0.32640326669E+02  0.71256456674E+02 -0.93699686775E+02  0.12217062893E+03  0.17770000000E+01 0.  1.
         15    1    3    3    0    0  0.16348861564E+02 -0.29882452887E+02 -0.52659119206E+02  0.62740631408E+02  0.17770000000E+01 0. -1.
</event>
<event>
 8    1  0.1798472E-005  0.1828634E+03  0.7546771E-02  0.1068166E+00
        -11   -1    0    0    0    0  0.00000000000E+00  0.00000000000E+00  0.18250000000E+03  0.18250000000E+03  0.00000000000E+00 0. -1.
         11   -1    0    0    0    0 -0.00000000000E+00 -0.00000000000E+00 -0.18250000000E+03  0.18250000000E+03  0.00000000000E+00 0.  1.
         23    2    1    2    0    0 -0.13955162076E+03  0.73093342679E+02 -0.13965999449E+02  0.18213664313E+03  0.90340555841E+02 0.  0.
         23    2    1    2    0    0  0.13955162076E+03 -0.73093342679E+02  0.13965999449E+02  0.18286335687E+03  0.91796876562E+02 0.  0.
        -11    1    4    4    0    0  0.28334453078E+02 -0.28746590682E+02 -0.35077636688E+02  0.53475679544E+02  0.00000000000E+00 0.  1.
         11    1    4    4    0    0  0.11121716768E+03 -0.44346751997E+02  0.49043636137E+02  0.12938767733E+03  0.00000000000E+00 0. -1.
        -15    1    3    3    0    0 -0.74457729586E+01  0.36957663008E+02  0.17494542753E+02  0.41599581069E+02  0.17770000000E+01 0.  1.
         15    1    3    3    0    0 -0.13210584780E+03  0.36135679671E+02 -0.31460542202E+02  0.14053706206E+03  0.17770000000E+01 0. -1.
</event>
<event>
 8    1  0.1798472E-005  0.1844547E+03  0.7546771E-02  0.1066909E+00
        -11   -1    0    0    0    0  0.00000000000E+00  0.00000000000E+00  0.18250000000E+03  0.18250000000E+03  0.00000000000E+00 0. -1.
         11   -1    0    0    0    0 -0.00000000000E+00 -0.00000000000E+00 -0.18250000000E+03  0.18250000000E+03  0.00000000000E+00 0.  1.
         23    2    1    2    0    0  0.14523377250E+02  0.84986752634E+02 -0.13368024973E+03  0.18445473219E+03  0.93378061940E+02 0.  0.
         23    2    1    2    0    0 -0.14523377250E+02 -0.84986752634E+02  0.13368024973E+03  0.18054526781E+03  0.85396182296E+02 0.  0.
        -11    1    4    4    0    0 -0.17946751595E+02  0.51267114212E+01 -0.73868104058E+00  0.18679258885E+02  0.00000000000E+00 0.  1.
         11    1    4    4    0    0  0.34233743450E+01 -0.90113464055E+02  0.13441893077E+03  0.16186600892E+03  0.00000000000E+00 0. -1.
        -15    1    3    3    0    0  0.76831175774E+01  0.85714998961E+02 -0.14643188202E+03  0.16985742593E+03  0.17770000000E+01 0.  1.
         15    1    3    3    0    0  0.68402596728E+01 -0.72824632742E+00  0.12751632292E+02  0.14597306265E+02  0.17770000000E+01 0. -1.
</event>
<event>
 8    1  0.1798472E-005  0.1827995E+03  0.7546771E-02  0.1068217E+00
        -11   -1    0    0    0    0  0.00000000000E+00  0.00000000000E+00  0.18250000000E+03  0.18250000000E+03  0.00000000000E+00 0.  1.
         11   -1    0    0    0    0 -0.00000000000E+00 -0.00000000000E+00 -0.18250000000E+03  0.18250000000E+03  0.00000000000E+00 0. -1.
         23    2    1    2    0    0  0.62782428746E+00  0.32217421512E+02 -0.15382326682E+03  0.18279953853E+03  0.93358006939E+02 0.  0.
         23    2    1    2    0    0 -0.62782428746E+00 -0.32217421512E+02  0.15382326682E+03  0.18220046147E+03  0.92179468046E+02 0.  0.
        -11    1    4    4    0    0 -0.37577694336E+02  0.73451950803E+01  0.36084440524E+02  0.52612943752E+02  0.00000000000E+00 0. -1.
         11    1    4    4    0    0  0.36949870048E+02 -0.39562616592E+02  0.11773882630E+03  0.12958751771E+03  0.00000000000E+00 0.  1.
        -15    1    3    3    0    0 -0.20896843257E+01 -0.31702286827E+02 -0.73522809962E+02  0.80113438850E+02  0.17770000000E+01 0.  1.
         15    1    3    3    0    0  0.27175086131E+01  0.63919708339E+02 -0.80300456863E+02  0.10268609969E+03  0.17770000000E+01 0. -1.
</event>
<event>
 8    1  0.1798472E-005  0.1825156E+03  0.7546771E-02  0.1068442E+00
        -11   -1    0    0    0    0  0.00000000000E+00  0.00000000000E+00  0.18250000000E+03  0.18250000000E+03  0.00000000000E+00 0.  1.
         11   -1    0    0    0    0 -0.00000000000E+00 -0.00000000000E+00 -0.18250000000E+03  0.18250000000E+03  0.00000000000E+00 0. -1.
         23    2    1    2    0    0 -0.15072216956E+03  0.20531341588E+02 -0.39411662269E+02  0.18248435898E+03  0.92782292294E+02 0.  0.
         23    2    1    2    0    0  0.15072216956E+03 -0.20531341588E+02  0.39411662269E+02  0.18251564102E+03  0.92843802760E+02 0.  0.
        -11    1    4    4    0    0  0.37619861094E+02 -0.33951532025E+02  0.45986389964E+02  0.68430318847E+02  0.00000000000E+00 0.  1.
         11    1    4    4    0    0  0.11310230847E+03  0.13420190438E+02 -0.65747276941E+01  0.11408532218E+03  0.00000000000E+00 0. -1.
        -15    1    3    3    0    0 -0.71580106616E+02  0.37954119067E+02 -0.57585066947E+02  0.99415413702E+02  0.17770000000E+01 0. -1.
         15    1    3    3    0    0 -0.79142062945E+02 -0.17422777479E+02  0.18173404677E+02  0.83068945274E+02  0.17770000000E+01 0.  1.
</event>
<event>
 8    1  0.1798472E-005  0.1833523E+03  0.7546771E-02  0.1067778E+00
        -11   -1    0    0    0    0  0.00000000000E+00  0.00000000000E+00  0.18250000000E+03  0.18250000000E+03  0.00000000000E+00 0.  1.
         11   -1    0    0    0    0 -0.00000000000E+00 -0.00000000000E+00 -0.18250000000E+03  0.18250000000E+03  0.00000000000E+00 0. -1.
         23    2    1    2    0    0  0.11173167883E+03  0.90553543440E+02 -0.67154070725E+02  0.18164765077E+03  0.88330558317E+02 0.  0.
         23    2    1    2    0    0 -0.11173167883E+03 -0.90553543440E+02  0.67154070725E+02  0.18335234923E+03  0.91785088490E+02 0.  0.
        -11    1    4    4    0    0 -0.10312683437E+03 -0.58173785173E+02  0.84654789047E+02  0.14555331173E+03  0.00000000000E+00 0.  1.
         11    1    4    4    0    0 -0.86048444589E+01 -0.32379758268E+02 -0.17500718322E+02  0.37799037493E+02  0.00000000000E+00 0. -1.
        -15    1    3    3    0    0  0.44138412545E+02  0.81148194065E+01  0.14669251346E+02  0.47248221343E+02  0.17770000000E+01 0.  1.
         15    1    3    3    0    0  0.67593266284E+02  0.82438724034E+02 -0.81823322071E+02  0.13439942943E+03  0.17770000000E+01 0. -1.
</event>
<event>
 8    1  0.1798472E-005  0.1828018E+03  0.7546771E-02  0.1068215E+00
        -11   -1    0    0    0    0  0.00000000000E+00  0.00000000000E+00  0.18250000000E+03  0.18250000000E+03  0.00000000000E+00 0. -1.
         11   -1    0    0    0    0 -0.00000000000E+00 -0.00000000000E+00 -0.18250000000E+03  0.18250000000E+03  0.00000000000E+00 0.  1.
         23    2    1    2    0    0 -0.14821339060E+03 -0.56575158073E+02 -0.12596975400E+01  0.18219818823E+03  0.89591491173E+02 0.  0.
         23    2    1    2    0    0  0.14821339060E+03  0.56575158073E+02  0.12596975400E+01  0.18280181177E+03  0.90812762792E+02 0.  0.
        -11    1    4    4    0    0  0.49615452610E+00 -0.94046491147E+01 -0.17561903858E+02  0.19927720928E+02  0.00000000000E+00 0. -1.
         11    1    4    4    0    0  0.14771723607E+03  0.65979807188E+02  0.18821601398E+02  0.16287409085E+03  0.00000000000E+00 0.  1.
        -15    1    3    3    0    0 -0.30272534792E+02  0.19915627011E+02  0.17653936153E+02  0.40346967081E+02  0.17770000000E+01 0.  1.
         15    1    3    3    0    0 -0.11794085581E+03 -0.76490785084E+02 -0.18913633693E+02  0.14185122114E+03  0.17770000000E+01 0. -1.
</event>
<event>
 8    1  0.1798472E-005  0.1825589E+03  0.7546771E-02  0.1068408E+00
        -11   -1    0    0    0    0  0.00000000000E+00  0.00000000000E+00  0.18250000000E+03  0.18250000000E+03  0.00000000000E+00 0.  1.
         11   -1    0    0    0    0 -0.00000000000E+00 -0.00000000000E+00 -0.18250000000E+03  0.18250000000E+03  0.00000000000E+00 0. -1.
         23    2    1    2    0    0  0.93848400417E+01 -0.75555334668E+02  0.13822194148E+03  0.18244107042E+03  0.91557387747E+02 0.  0.
         23    2    1    2    0    0 -0.93848400417E+01  0.75555334668E+02 -0.13822194148E+03  0.18255892958E+03  0.91792014054E+02 0.  0.
        -11    1    4    4    0    0 -0.12691993123E+02 -0.17804080660E+02 -0.10330759866E+02  0.24182567626E+02  0.00000000000E+00 0.  1.
         11    1    4    4    0    0  0.33071530814E+01  0.93359415328E+02 -0.12789118161E+03  0.15837636195E+03  0.00000000000E+00 0. -1.
        -15    1    3    3    0    0 -0.27181646740E+02 -0.58151656504E+02  0.38687425828E+02  0.74968871673E+02  0.17770000000E+01 0. -1.
         15    1    3    3    0    0  0.36566486782E+02 -0.17403678164E+02  0.99534515649E+02  0.10747219875E+03  0.17770000000E+01 0.  1.
</event>
<event>
 8    1  0.1798472E-005  0.1830257E+03  0.7546771E-02  0.1068037E+00
        -11   -1    0    0    0    0  0.00000000000E+00  0.00000000000E+00  0.18250000000E+03  0.18250000000E+03  0.00000000000E+00 0.  1.
         11   -1    0    0    0    0 -0.00000000000E+00 -0.00000000000E+00 -0.18250000000E+03  0.18250000000E+03  0.00000000000E+00 0. -1.
         23    2    1    2    0    0  0.34462144582E+02 -0.96751924737E+01 -0.15393626212E+03  0.18197430732E+03  0.90205470861E+02 0.  0.
         23    2    1    2    0    0 -0.34462144582E+02  0.96751924737E+01  0.15393626212E+03  0.18302569268E+03  0.92308085379E+02 0.  0.
        -11    1    4    4    0    0 -0.57853090652E+02  0.32446287490E+02  0.10527442866E+03  0.12442848147E+03  0.00000000000E+00 0.  1.
         11    1    4    4    0    0  0.23390946070E+02 -0.22771095017E+02  0.48661833453E+02  0.58597211208E+02  0.00000000000E+00 0. -1.
        -15    1    3    3    0    0  0.41942907481E+02  0.21930243608E+02 -0.35604956473E+02  0.59253807701E+02  0.17770000000E+01 0.  1.
         15    1    3    3    0    0 -0.74807628990E+01 -0.31605436082E+02 -0.11833130564E+03  0.12272049962E+03  0.17770000000E+01 0. -1.
</event>
<event>
 8    1  0.1798472E-005  0.1827366E+03  0.7546771E-02  0.1068267E+00
        -11   -1    0    0    0    0  0.00000000000E+00  0.00000000000E+00  0.18250000000E+03  0.18250000000E+03  0.00000000000E+00 0. -1.
         11   -1    0    0    0    0 -0.00000000000E+00 -0.00000000000E+00 -0.18250000000E+03  0.18250000000E+03  0.00000000000E+00 0.  1.
         23    2    1    2    0    0  0.40003874473E+02 -0.76426578430E+02  0.13365352616E+03  0.18273661549E+03  0.89933718491E+02 0.  0.
         23    2    1    2    0    0 -0.40003874473E+02  0.76426578430E+02 -0.13365352616E+03  0.18226338451E+03  0.88968221383E+02 0.  0.
        -11    1    4    4    0    0 -0.43419787458E+02 -0.89594600631E+00 -0.68431120345E+02  0.81048743937E+02  0.00000000000E+00 0.  1.
         11    1    4    4    0    0  0.34159129848E+01  0.77322524436E+02 -0.65222405814E+02  0.10121464058E+03  0.00000000000E+00 0. -1.
        -15    1    3    3    0    0  0.54539030055E+02 -0.39654430527E+02  0.34059511243E+02  0.75565783890E+02  0.17770000000E+01 0. -1.
         15    1    3    3    0    0 -0.14535155582E+02 -0.36772147903E+02  0.99594014915E+02  0.10717083160E+03  0.17770000000E+01 0.  1.
</event>
<event>
 8    1  0.1798472E-005  0.1830002E+03  0.7546771E-02  0.1068057E+00
        -11   -1    0    0    0    0  0.00000000000E+00  0.00000000000E+00  0.18250000000E+03  0.18250000000E+03  0.00000000000E+00 0. -1.
         11   -1    0    0    0    0 -0.00000000000E+00 -0.00000000000E+00 -0.18250000000E+03  0.18250000000E+03  0.00000000000E+00 0.  1.
         23    2    1    2    0    0 -0.62722387155E+02  0.95625675507E+02  0.10867888799E+03  0.18300016228E+03  0.92733979925E+02 0.  0.
         23    2    1    2    0    0  0.62722387155E+02 -0.95625675507E+02 -0.10867888799E+03  0.18199983772E+03  0.90743994683E+02 0.  0.
        -11    1    4    4    0    0  0.62225670209E+02 -0.11247489762E+03 -0.90467843779E+02  0.15718481919E+03  0.00000000000E+00 0.  1.
         11    1    4    4    0    0  0.49671694646E+00  0.16849222112E+02 -0.18211044207E+02  0.24815018529E+02  0.00000000000E+00 0. -1.
        -15    1    3    3    0    0  0.18688021620E+02  0.59058170431E+01 -0.80977996932E+00  0.19696047817E+02  0.17770000000E+01 0.  1.
         15    1    3    3    0    0 -0.81410408775E+02  0.89719858464E+02  0.10948866795E+03  0.16330411446E+03  0.17770000000E+01 0. -1.
</event>
<event>
 8    1  0.1798472E-005  0.1826910E+03  0.7546771E-02  0.1068303E+00
        -11   -1    0    0    0    0  0.00000000000E+00  0.00000000000E+00  0.18250000000E+03  0.18250000000E+03  0.00000000000E+00 0.  1.
         11   -1    0    0    0    0 -0.00000000000E+00 -0.00000000000E+00 -0.18250000000E+03  0.18250000000E+03  0.00000000000E+00 0. -1.
         23    2    1    2    0    0 -0.13196626176E+02  0.23140941286E+02 -0.15667045121E+03  0.18269098340E+03  0.90114987811E+02 0.  0.
         23    2    1    2    0    0  0.13196626176E+02 -0.23140941286E+02  0.15667045121E+03  0.18230901660E+03  0.89338083386E+02 0.  0.
        -11    1    4    4    0    0  0.86744385736E+01  0.15349619279E+02 -0.31032761065E+01  0.17902151244E+02  0.00000000000E+00 0. -1.
         11    1    4    4    0    0  0.45221876020E+01 -0.38490560565E+02  0.15977372732E+03  0.16440686535E+03  0.00000000000E+00 0.  1.
        -15    1    3    3    0    0 -0.33497506994E+02  0.28418874312E+02 -0.27588397020E+02  0.51903687452E+02  0.17770000000E+01 0.  1.
         15    1    3    3    0    0  0.20300880818E+02 -0.52779330258E+01 -0.12908205419E+03  0.13078729595E+03  0.17770000000E+01 0. -1.
</event>
<event>
 8    1  0.1798472E-005  0.1828713E+03  0.7546771E-02  0.1068160E+00
        -11   -1    0    0    0    0  0.00000000000E+00  0.00000000000E+00  0.18250000000E+03  0.18250000000E+03  0.00000000000E+00 0.  1.
         11   -1    0    0    0    0 -0.00000000000E+00 -0.00000000000E+00 -0.18250000000E+03  0.18250000000E+03  0.00000000000E+00 0. -1.
         23    2    1    2    0    0  0.59581327821E+02 -0.16000518431E+02 -0.14490728682E+03  0.18287129888E+03  0.92939975077E+02 0.  0.
         23    2    1    2    0    0 -0.59581327821E+02  0.16000518431E+02  0.14490728682E+03  0.18212870112E+03  0.91470163355E+02 0.  0.
        -11    1    4    4    0    0 -0.80955399750E+00  0.19310605441E+02 -0.59261991671E+01  0.20215704210E+02  0.00000000000E+00 0. -1.
         11    1    4    4    0    0 -0.58771773823E+02 -0.33100870094E+01  0.15083348598E+03  0.16191299691E+03  0.00000000000E+00 0.  1.
        -15    1    3    3    0    0  0.46945803718E+02  0.23042661263E+02 -0.28834303207E+02  0.59744853295E+02  0.17770000000E+01 0.  1.
         15    1    3    3    0    0  0.12635524103E+02 -0.39043179694E+02 -0.11607298361E+03  0.12312644559E+03  0.17770000000E+01 0. -1.
</event>
<event>
 8    1  0.1798472E-005  0.1830736E+03  0.7546771E-02  0.1067999E+00
        -11   -1    0    0    0    0  0.00000000000E+00  0.00000000000E+00  0.18250000000E+03  0.18250000000E+03  0.00000000000E+00 0.  1.
         11   -1    0    0    0    0 -0.00000000000E+00 -0.00000000000E+00 -0.18250000000E+03  0.18250000000E+03  0.00000000000E+00 0. -1.
         23    2    1    2    0    0  0.51235143447E+01 -0.62703855536E+02  0.14637957346E+03  0.18192641623E+03  0.87819231929E+02 0.  0.
         23    2    1    2    0    0 -0.51235143447E+01  0.62703855536E+02 -0.14637957346E+03  0.18307358377E+03  0.90171689845E+02 0.  0.
        -11    1    4    4    0    0 -0.29191486195E+02 -0.10354140042E+01 -0.10446377291E+02  0.31021633531E+02  0.00000000000E+00 0.  1.
         11    1    4    4    0    0  0.24067971850E+02  0.63739269540E+02 -0.13593319617E+03  0.15205195024E+03  0.00000000000E+00 0. -1.
        -15    1    3    3    0    0 -0.13282799723E+02 -0.80049740033E+02  0.97490908902E+02  0.12685436017E+03  0.17770000000E+01 0.  1.
         15    1    3    3    0    0  0.18406314068E+02  0.17345884497E+02  0.48888664560E+02  0.55072056054E+02  0.17770000000E+01 0. -1.
</event>
<event>
 8    1  0.1798472E-005  0.1830012E+03  0.7546771E-02  0.1068057E+00
        -11   -1    0    0    0    0  0.00000000000E+00  0.00000000000E+00  0.18250000000E+03  0.18250000000E+03  0.00000000000E+00 0. -1.
         11   -1    0    0    0    0 -0.00000000000E+00 -0.00000000000E+00 -0.18250000000E+03  0.18250000000E+03  0.00000000000E+00 0.  1.
         23    2    1    2    0    0  0.12933391494E+03 -0.89351836367E+02  0.12217477581E+02  0.18300115966E+03  0.92893193847E+02 0.  0.
         23    2    1    2    0    0 -0.12933391494E+03  0.89351836367E+02 -0.12217477581E+02  0.18199884034E+03  0.90902689223E+02 0.  0.
        -11    1    4    4    0    0 -0.24133010172E+02  0.27658031903E+02 -0.42682093909E+02  0.56295026860E+02  0.00000000000E+00 0.  1.
         11    1    4    4    0    0 -0.10520090477E+03  0.61693804464E+02  0.30464616328E+02  0.12570381348E+03  0.00000000000E+00 0. -1.
        -15    1    3    3    0    0  0.82059511857E+02 -0.10382865581E+03  0.14065569573E+01  0.13236045250E+03  0.17770000000E+01 0. -1.
         15    1    3    3    0    0  0.47274403088E+02  0.14476819446E+02  0.10810920624E+02  0.50640707167E+02  0.17770000000E+01 0.  1.
</event>
<event>
 8    1  0.1798472E-005  0.1828511E+03  0.7546771E-02  0.1068176E+00
        -11   -1    0    0    0    0  0.00000000000E+00  0.00000000000E+00  0.18250000000E+03  0.18250000000E+03  0.00000000000E+00 0. -1.
         11   -1    0    0    0    0 -0.00000000000E+00 -0.00000000000E+00 -0.18250000000E+03  0.18250000000E+03  0.00000000000E+00 0.  1.
         23    2    1    2    0    0 -0.15526548095E+03 -0.18515193211E+02 -0.83806118254E+01  0.18214885595E+03  0.93047241311E+02 0.  0.
         23    2    1    2    0    0  0.15526548095E+03  0.18515193211E+02  0.83806118254E+01  0.18285114405E+03  0.94414640128E+02 0.  0.
        -11    1    4    4    0    0 -0.11233814955E+02 -0.16663060969E+01 -0.86428900788E+01  0.14271465354E+02  0.00000000000E+00 0.  1.
         11    1    4    4    0    0  0.16649929591E+03  0.20181499308E+02  0.17023501904E+02  0.16857967869E+03  0.00000000000E+00 0. -1.
        -15    1    3    3    0    0 -0.30923863891E+02  0.34160946956E+02 -0.95558112741E+01  0.47092747987E+02  0.17770000000E+01 0. -1.
         15    1    3    3    0    0 -0.12434161706E+03 -0.52676140167E+02  0.11751994487E+01  0.13505610797E+03  0.17770000000E+01 0.  1.
</event>
<event>
 8    1  0.1798472E-005  0.1827646E+03  0.7546771E-02  0.1068244E+00
        -11   -1    0    0    0    0  0.00000000000E+00  0.00000000000E+00  0.18250000000E+03  0.18250000000E+03  0.00000000000E+00 0.  1.
         11   -1    0    0    0    0 -0.00000000000E+00 -0.00000000000E+00 -0.18250000000E+03  0.18250000000E+03  0.00000000000E+00 0. -1.
         23    2    1    2    0    0 -0.53603823886E+01  0.15371897173E+03 -0.41910343399E+02  0.18223537810E+03  0.88289298221E+02 0.  0.
         23    2    1    2    0    0  0.53603823886E+01 -0.15371897173E+03  0.41910343399E+02  0.18276462190E+03  0.89376586223E+02 0.  0.
        -11    1    4    4    0    0 -0.34749468851E+02 -0.10893588796E+03  0.10208110771E+02  0.11479877524E+03  0.00000000000E+00 0. -1.
         11    1    4    4    0    0  0.40109851239E+02 -0.44783083767E+02  0.31702232627E+02  0.67965846656E+02  0.00000000000E+00 0.  1.
        -15    1    3    3    0    0  0.91864787460E+01 -0.95190192036E+01 -0.14937096765E+01  0.13431009491E+02  0.17770000000E+01 0. -1.
         15    1    3    3    0    0 -0.14546861135E+02  0.16323799093E+03 -0.40416633722E+02  0.16880436861E+03  0.17770000000E+01 0.  1.
</event>
<event>
 8    1  0.1798472E-005  0.1825949E+03  0.7546771E-02  0.1068379E+00
        -11   -1    0    0    0    0  0.00000000000E+00  0.00000000000E+00  0.18250000000E+03  0.18250000000E+03  0.00000000000E+00 0.  1.
         11   -1    0    0    0    0 -0.00000000000E+00 -0.00000000000E+00 -0.18250000000E+03  0.18250000000E+03  0.00000000000E+00 0. -1.
         23    2    1    2    0    0 -0.86623936875E+02  0.49655668044E+01 -0.13215850771E+03  0.18259490048E+03  0.91360074566E+02 0.  0.
         23    2    1    2    0    0  0.86623936875E+02 -0.49655668044E+01  0.13215850771E+03  0.18240509952E+03  0.90980140019E+02 0.  0.
        -11    1    4    4    0    0  0.16757339121E+01  0.32556284335E+02  0.29366310530E+02  0.43875960707E+02  0.00000000000E+00 0. -1.
         11    1    4    4    0    0  0.84948202963E+02 -0.37521851139E+02  0.10279219718E+03  0.13852913882E+03  0.00000000000E+00 0.  1.
        -15    1    3    3    0    0  0.19539865335E+02  0.25867971541E+01 -0.20565866031E+02  0.28541381036E+02  0.17770000000E+01 0.  1.
         15    1    3    3    0    0 -0.10616380221E+03  0.23787696503E+01 -0.11159264168E+03  0.15405351944E+03  0.17770000000E+01 0. -1.
</event>
<event>
 8    1  0.1798472E-005  0.1842456E+03  0.7546771E-02  0.1067074E+00
        -11   -1    0    0    0    0  0.00000000000E+00  0.00000000000E+00  0.18250000000E+03  0.18250000000E+03  0.00000000000E+00 0.  1.
         11   -1    0    0    0    0 -0.00000000000E+00 -0.00000000000E+00 -0.18250000000E+03  0.18250000000E+03  0.00000000000E+00 0. -1.
         23    2    1    2    0    0 -0.36995004961E+02 -0.22617553198E+02 -0.14956243539E+03  0.18075442432E+03  0.91777207005E+02 0.  0.
         23    2    1    2    0    0  0.36995004961E+02  0.22617553198E+02  0.14956243539E+03  0.18424557568E+03  0.98475001775E+02 0.  0.
        -11    1    4    4    0    0  0.38281395995E+02 -0.18423477179E+02  0.17500320298E+02  0.45947263261E+02  0.00000000000E+00 0.  1.
         11    1    4    4    0    0 -0.12863910335E+01  0.41041030378E+02  0.13206211509E+03  0.13829831242E+03  0.00000000000E+00 0. -1.
        -15    1    3    3    0    0 -0.10925406665E+02 -0.16312572330E+02 -0.15245042382E+03  0.15371972540E+03  0.17770000000E+01 0. -1.
         15    1    3    3    0    0 -0.26069598296E+02 -0.63049808684E+01  0.28879884301E+01  0.27034698912E+02  0.17770000000E+01 0.  1.
</event>
<event>
 7    1  0.1798472E-005  0.1921485E+03  0.7546771E-02  0.1061024E+00
        -11   -1    0    0    0    0  0.00000000000E+00  0.00000000000E+00  0.18250000000E+03  0.18250000000E+03  0.00000000000E+00 0. -1.
         11   -1    0    0    0    0 -0.00000000000E+00 -0.00000000000E+00 -0.18250000000E+03  0.18250000000E+03  0.00000000000E+00 0.  1.
         23    2    1    2    0    0  0.97649937955E+02  0.37317229935E+02 -0.13234086690E+03  0.19214850940E+03  0.92080717745E+02 0.  0.
        -11    1    3    3    0    0  0.25086645782E+02  0.38223417251E+02 -0.10513734078E+03  0.11464828760E+03  0.00000000000E+00 0. -1.
         11    1    3    3    0    0  0.72563292173E+02 -0.90618731604E+00 -0.27203526125E+02  0.77500221806E+02  0.00000000000E+00 0.  1.
        -15    1    1    2    0    0 -0.48712486252E+02 -0.13341732686E+02  0.35648013440E+02  0.61845345331E+02  0.17770000000E+01 0.  1.
         15    1    1    2    0    0 -0.48937451703E+02 -0.23975497249E+02  0.96692853462E+02  0.11100614527E+03  0.17770000000E+01 0. -1.
</event>
<event>
 8    1  0.1798472E-005  0.1834352E+03  0.7546771E-02  0.1067713E+00
        -11   -1    0    0    0    0  0.00000000000E+00  0.00000000000E+00  0.18250000000E+03  0.18250000000E+03  0.00000000000E+00 0. -1.
         11   -1    0    0    0    0 -0.00000000000E+00 -0.00000000000E+00 -0.18250000000E+03  0.18250000000E+03  0.00000000000E+00 0.  1.
         23    2    1    2    0    0 -0.85062167497E+02 -0.13125760259E+03  0.72702226521E+01  0.18343518748E+03  0.95558784473E+02 0.  0.
         23    2    1    2    0    0  0.85062167497E+02  0.13125760259E+03 -0.72702226521E+01  0.18156481252E+03  0.91917323891E+02 0.  0.
        -11    1    4    4    0    0  0.83482355373E+02  0.62577137282E+02 -0.31070300830E+02  0.10886030205E+03  0.00000000000E+00 0.  1.
         11    1    4    4    0    0  0.15798121243E+01  0.68680465310E+02  0.23800078178E+02  0.72704510471E+02  0.00000000000E+00 0. -1.
        -15    1    3    3    0    0 -0.39392428219E+01 -0.43761397473E+02 -0.35661754976E+02  0.56617100242E+02  0.17770000000E+01 0. -1.
         15    1    3    3    0    0 -0.81122924675E+02 -0.87496205119E+02  0.42931977628E+02  0.12681808724E+03  0.17770000000E+01 0.  1.
</event>
<event>
 8    1  0.1798472E-005  0.1826946E+03  0.7546771E-02  0.1068300E+00
        -11   -1    0    0    0    0  0.00000000000E+00  0.00000000000E+00  0.18250000000E+03  0.18250000000E+03  0.00000000000E+00 0.  1.
         11   -1    0    0    0    0 -0.00000000000E+00 -0.00000000000E+00 -0.18250000000E+03  0.18250000000E+03  0.00000000000E+00 0. -1.
         23    2    1    2    0    0  0.28045939076E+02  0.65949566819E+02 -0.14136039045E+03  0.18269455635E+03  0.90876954553E+02 0.  0.
         23    2    1    2    0    0 -0.28045939076E+02 -0.65949566819E+02  0.14136039045E+03  0.18230544365E+03  0.90092145809E+02 0.  0.
        -11    1    4    4    0    0 -0.10564358167E+02  0.14581256405E+02  0.73143173579E+02  0.75326904510E+02  0.00000000000E+00 0.  1.
         11    1    4    4    0    0 -0.17481580909E+02 -0.80530823224E+02  0.68217216868E+02  0.10697853914E+03  0.00000000000E+00 0. -1.
        -15    1    3    3    0    0  0.42468052802E+02  0.21005988655E+02 -0.18197424906E+02  0.50784752341E+02  0.17770000000E+01 0.  1.
         15    1    3    3    0    0 -0.14422113726E+02  0.44943578164E+02 -0.12316296554E+03  0.13190980400E+03  0.17770000000E+01 0. -1.
</event>
<event>
 8    1  0.1798472E-005  0.1827691E+03  0.7546771E-02  0.1068241E+00
        -11   -1    0    0    0    0  0.00000000000E+00  0.00000000000E+00  0.18250000000E+03  0.18250000000E+03  0.00000000000E+00 0. -1.
         11   -1    0    0    0    0 -0.00000000000E+00 -0.00000000000E+00 -0.18250000000E+03  0.18250000000E+03  0.00000000000E+00 0. -1.
         23    2    1    2    0    0  0.47119927647E+02 -0.94803060922E+00 -0.15097925270E+03  0.18276913415E+03  0.91589493436E+02 0.  0.
         23    2    1    2    0    0 -0.47119927647E+02  0.94803060922E+00  0.15097925270E+03  0.18223086585E+03  0.90510592640E+02 0.  0.
        -11    1    4    4    0    0 -0.24587751565E+02 -0.23184648129E+02  0.14473635010E+03  0.14862939304E+03  0.00000000000E+00 0. -1.
         11    1    4    4    0    0 -0.22532176082E+02  0.24132678739E+02  0.62429025988E+01  0.33601472809E+02  0.00000000000E+00 0. -1.
        -15    1    3    3    0    0 -0.26510222561E+02  0.93854181287E+01 -0.49430192645E+02  0.56897975778E+02  0.17770000000E+01 0.  1.
         15    1    3    3    0    0  0.73630150208E+02 -0.10333448738E+02 -0.10154906005E+03  0.12587115837E+03  0.17770000000E+01 0. -1.
</event>
<event>
 8    1  0.1798472E-005  0.1836191E+03  0.7546771E-02  0.1067567E+00
        -11   -1    0    0    0    0  0.00000000000E+00  0.00000000000E+00  0.18250000000E+03  0.18250000000E+03  0.00000000000E+00 0. -1.
         11   -1    0    0    0    0 -0.00000000000E+00 -0.00000000000E+00 -0.18250000000E+03  0.18250000000E+03  0.00000000000E+00 0. -1.
         23    2    1    2    0    0  0.25395847306E+02  0.31480868990E+01 -0.15704202589E+03  0.18361910715E+03  0.91645616942E+02 0.  0.
         23    2    1    2    0    0 -0.25395847306E+02 -0.31480868990E+01  0.15704202589E+03  0.18138089285E+03  0.87074513395E+02 0.  0.
        -11    1    4    4    0    0  0.18360513167E+02  0.30372597281E+02  0.56549616134E+02  0.66764228403E+02  0.00000000000E+00 0. -1.
         11    1    4    4    0    0 -0.43756360473E+02 -0.33520684180E+02  0.10049240976E+03  0.11461666444E+03  0.00000000000E+00 0. -1.
        -15    1    3    3    0    0  0.43150783223E+02 -0.30661028558E+02 -0.64287964412E+02  0.83295791384E+02  0.17770000000E+01 0. -1.
         15    1    3    3    0    0 -0.17754935917E+02  0.33809115457E+02 -0.92754061478E+02  0.10032331577E+03  0.17770000000E+01 0.  1.
</event>
<event>
 8    1  0.1798472E-005  0.1828256E+03  0.7546771E-02  0.1068196E+00
        -11   -1    0    0    0    0  0.00000000000E+00  0.00000000000E+00  0.18250000000E+03  0.18250000000E+03  0.00000000000E+00 0. -1.
         11   -1    0    0    0    0 -0.00000000000E+00 -0.00000000000E+00 -0.18250000000E+03  0.18250000000E+03  0.00000000000E+00 0.  1.
         23    2    1    2    0    0  0.36888047607E+00  0.81540266514E+02  0.13529483437E+03  0.18217444516E+03  0.90740757804E+02 0.  0.
         23    2    1    2    0    0 -0.36888047607E+00 -0.81540266514E+02 -0.13529483437E+03  0.18282555484E+03  0.92040969992E+02 0.  0.
        -11    1    4    4    0    0  0.15466833584E+01 -0.83951585865E+02 -0.14777890841E+03  0.16996725205E+03  0.00000000000E+00 0.  1.
         11    1    4    4    0    0 -0.19155638345E+01  0.24113193512E+01  0.12484074040E+02  0.12858302783E+02  0.00000000000E+00 0. -1.
        -15    1    3    3    0    0  0.22598697500E+02  0.93656727766E+02  0.10214237930E+03  0.14042260204E+03  0.17770000000E+01 0. -1.
         15    1    3    3    0    0 -0.22229817024E+02 -0.12116461253E+02  0.33152455071E+02  0.41751843126E+02  0.17770000000E+01 0.  1.
</event>
<event>
 8    1  0.1798472E-005  0.1837608E+03  0.7546771E-02  0.1067456E+00
        -11   -1    0    0    0    0  0.00000000000E+00  0.00000000000E+00  0.18250000000E+03  0.18250000000E+03  0.00000000000E+00 0.  1.
         11   -1    0    0    0    0 -0.00000000000E+00 -0.00000000000E+00 -0.18250000000E+03  0.18250000000E+03  0.00000000000E+00 0. -1.
         23    2    1    2    0    0 -0.51110608766E+02 -0.67809200118E+02  0.13147706562E+03  0.18123921550E+03  0.91384093254E+02 0.  0.
         23    2    1    2    0    0  0.51110608766E+02  0.67809200118E+02 -0.13147706562E+03  0.18376078450E+03  0.96288240130E+02 0.  0.
        -11    1    4    4    0    0  0.25859496835E+02  0.94305068601E+01 -0.11473221914E+03  0.11798783897E+03  0.00000000000E+00 0.  1.
         11    1    4    4    0    0  0.25251111932E+02  0.58378693258E+02 -0.16744846483E+02  0.65772945532E+02  0.00000000000E+00 0. -1.
        -15    1    3    3    0    0  0.23761538217E+01 -0.64070529528E+02  0.10069871170E+03  0.11939039797E+03  0.17770000000E+01 0.  1.
         15    1    3    3    0    0 -0.53486762588E+02 -0.37386705900E+01  0.30778353923E+02  0.61848817524E+02  0.17770000000E+01 0. -1.
</event>
<event>
 8    1  0.1798472E-005  0.1828509E+03  0.7546771E-02  0.1068176E+00
        -11   -1    0    0    0    0  0.00000000000E+00  0.00000000000E+00  0.18250000000E+03  0.18250000000E+03  0.00000000000E+00 0.  1.
         11   -1    0    0    0    0 -0.00000000000E+00 -0.00000000000E+00 -0.18250000000E+03  0.18250000000E+03  0.00000000000E+00 0. -1.
         23    2    1    2    0    0  0.98374025868E+02 -0.76175830007E+02  0.97848127912E+02  0.18214910161E+03  0.90132308525E+02 0.  0.
         23    2    1    2    0    0 -0.98374025868E+02  0.76175830007E+02 -0.97848127912E+02  0.18285089839E+03  0.91542279098E+02 0.  0.
        -11    1    4    4    0    0 -0.53221755611E+02  0.90508983422E+02 -0.80858998125E+02  0.13252399378E+03  0.00000000000E+00 0. -1.
         11    1    4    4    0    0 -0.45152270256E+02 -0.14333153415E+02 -0.16989129787E+02  0.50326904604E+02  0.00000000000E+00 0.  1.
        -15    1    3    3    0    0  0.53484978058E+01 -0.12083097200E+02  0.62294995937E+02  0.63705823239E+02  0.17770000000E+01 0. -1.
         15    1    3    3    0    0  0.93025528062E+02 -0.64092732807E+02  0.35553131974E+02  0.11844327837E+03  0.17770000000E+01 0.  1.
</event>
<event>
 8    1  0.1798472E-005  0.1830063E+03  0.7546771E-02  0.1068052E+00
        -11   -1    0    0    0    0  0.00000000000E+00  0.00000000000E+00  0.18250000000E+03  0.18250000000E+03  0.00000000000E+00 0.  1.
         11   -1    0    0    0    0 -0.00000000000E+00 -0.00000000000E+00 -0.18250000000E+03  0.18250000000E+03  0.00000000000E+00 0. -1.
         23    2    1    2    0    0 -0.29964116146E+02  0.52383366792E+02 -0.14526867967E+03  0.18300632520E+03  0.93522512787E+02 0.  0.
         23    2    1    2    0    0  0.29964116146E+02 -0.52383366792E+02  0.14526867967E+03  0.18199367480E+03  0.91525094934E+02 0.  0.
        -11    1    4    4    0    0  0.12433921668E+02 -0.25921284469E+02 -0.43221293041E+01  0.29072258225E+02  0.00000000000E+00 0. -1.
         11    1    4    4    0    0  0.17530194478E+02 -0.26462082324E+02  0.14959080897E+03  0.15292141658E+03  0.00000000000E+00 0.  1.
        -15    1    3    3    0    0  0.26254248374E+01  0.32086082877E+02  0.50976235380E+00  0.32246351059E+02  0.17770000000E+01 0.  1.
         15    1    3    3    0    0 -0.32589540984E+02  0.20297283915E+02 -0.14577844202E+03  0.15075997414E+03  0.17770000000E+01 0. -1.
</event>
<event>
 8    1  0.1798472E-005  0.1832711E+03  0.7546771E-02  0.1067843E+00
        -11   -1    0    0    0    0  0.00000000000E+00  0.00000000000E+00  0.18250000000E+03  0.18250000000E+03  0.00000000000E+00 0.  1.
         11   -1    0    0    0    0 -0.00000000000E+00 -0.00000000000E+00 -0.18250000000E+03  0.18250000000E+03  0.00000000000E+00 0. -1.
         23    2    1    2    0    0 -0.26751959385E+02 -0.19914489284E+00 -0.15499006442E+03  0.18172890920E+03  0.91037186792E+02 0.  0.
         23    2    1    2    0    0  0.26751959385E+02  0.19914489284E+00  0.15499006442E+03  0.18327109080E+03  0.94077976508E+02 0.  0.
        -11    1    4    4    0    0  0.47491216725E+02 -0.21948790101E+01  0.15527708918E+03  0.16239214139E+03  0.00000000000E+00 0.  1.
         11    1    4    4    0    0 -0.20739257340E+02  0.23940239029E+01 -0.28702475554E+00  0.20878949415E+02  0.00000000000E+00 0. -1.
        -15    1    3    3    0    0  0.30586344316E+02  0.15270562276E+02 -0.71307611086E+02  0.79098973815E+02  0.17770000000E+01 0.  1.
         15    1    3    3    0    0 -0.57338303701E+02 -0.15469707169E+02 -0.83682453338E+02  0.10262993538E+03  0.17770000000E+01 0. -1.
</event>
<event>
 8    1  0.1798472E-005  0.1826702E+03  0.7546771E-02  0.1068319E+00
        -11   -1    0    0    0    0  0.00000000000E+00  0.00000000000E+00  0.18250000000E+03  0.18250000000E+03  0.00000000000E+00 0.  1.
         11   -1    0    0    0    0 -0.00000000000E+00 -0.00000000000E+00 -0.18250000000E+03  0.18250000000E+03  0.00000000000E+00 0. -1.
         23    2    1    2    0    0 -0.62934685575E+01 -0.51034165997E+02 -0.15038979982E+03  0.18267017010E+03  0.90040020600E+02 0.  0.
         23    2    1    2    0    0  0.62934685575E+01  0.51034165997E+02  0.15038979982E+03  0.18232982990E+03  0.89347530096E+02 0.  0.
        -11    1    4    4    0    0  0.41840966930E+01 -0.18224622989E+02  0.85081982562E+02  0.87112497984E+02  0.00000000000E+00 0.  1.
         11    1    4    4    0    0  0.21093718645E+01  0.69258788986E+02  0.65307817259E+02  0.95217331913E+02  0.00000000000E+00 0. -1.
        -15    1    3    3    0    0 -0.34669590656E+02 -0.58959842065E+02 -0.12964975303E+03  0.14659624716E+03  0.17770000000E+01 0. -1.
         15    1    3    3    0    0  0.28376122098E+02  0.79256760678E+01 -0.20740046796E+02  0.36073922944E+02  0.17770000000E+01 0.  1.
</event>
<event>
 8    1  0.1798472E-005  0.1836025E+03  0.7546771E-02  0.1067581E+00
        -11   -1    0    0    0    0  0.00000000000E+00  0.00000000000E+00  0.18250000000E+03  0.18250000000E+03  0.00000000000E+00 0.  1.
         11   -1    0    0    0    0 -0.00000000000E+00 -0.00000000000E+00 -0.18250000000E+03  0.18250000000E+03  0.00000000000E+00 0. -1.
         23    2    1    2    0    0 -0.14448435260E+02 -0.26197456617E+02 -0.15595497065E+03  0.18139750425E+03  0.87681455634E+02 0.  0.
         23    2    1    2    0    0  0.14448435260E+02  0.26197456617E+02  0.15595497065E+03  0.18360249575E+03  0.92156711970E+02 0.  0.
        -11    1    4    4    0    0 -0.34157434092E+02  0.15368684999E+02  0.29442734398E+02  0.47642432675E+02  0.00000000000E+00 0. -1.
         11    1    4    4    0    0  0.48605869353E+02  0.10828771617E+02  0.12651223625E+03  0.13596006308E+03  0.00000000000E+00 0.  1.
        -15    1    3    3    0    0 -0.43980763398E+02 -0.27795487806E+02 -0.13613906189E+03  0.14575286822E+03  0.17770000000E+01 0. -1.
         15    1    3    3    0    0  0.29532328138E+02  0.15980311890E+01 -0.19815908759E+02  0.35644636032E+02  0.17770000000E+01 0.  1.
</event>
<event>
 8    1  0.1798472E-005  0.1843809E+03  0.7546771E-02  0.1066967E+00
        -11   -1    0    0    0    0  0.00000000000E+00  0.00000000000E+00  0.18250000000E+03  0.18250000000E+03  0.00000000000E+00 0.  1.
         11   -1    0    0    0    0 -0.00000000000E+00 -0.00000000000E+00 -0.18250000000E+03  0.18250000000E+03  0.00000000000E+00 0. -1.
         23    2    1    2    0    0 -0.14424257171E+03 -0.71420710492E+01 -0.63431787566E+02  0.18061907112E+03  0.87992775293E+02 0.  0.
         23    2    1    2    0    0  0.14424257171E+03  0.71420710492E+01  0.63431787566E+02  0.18438092888E+03  0.95476733236E+02 0.  0.
        -11    1    4    4    0    0  0.11864375365E+03  0.30872897939E+01  0.88712783984E+02  0.14817499681E+03  0.00000000000E+00 0.  1.
         11    1    4    4    0    0  0.25598818062E+02  0.40547812553E+01 -0.25280996418E+02  0.36205932070E+02  0.00000000000E+00 0. -1.
        -15    1    3    3    0    0 -0.28111704069E+02 -0.29900099000E+01 -0.57677839412E+02  0.64258065277E+02  0.17770000000E+01 0.  1.
         15    1    3    3    0    0 -0.11613086764E+03 -0.41520611492E+01 -0.57539481537E+01  0.11636100584E+03  0.17770000000E+01 0. -1.
</event>
<event>
 8    1  0.1798472E-005  0.1830667E+03  0.7546771E-02  0.1068005E+00
        -11   -1    0    0    0    0  0.00000000000E+00  0.00000000000E+00  0.18250000000E+03  0.18250000000E+03  0.00000000000E+00 0.  1.
         11   -1    0    0    0    0 -0.00000000000E+00 -0.00000000000E+00 -0.18250000000E+03  0.18250000000E+03  0.00000000000E+00 0. -1.
         23    2    1    2    0    0 -0.43795014876E+01 -0.22679031208E+02 -0.15782955196E+03  0.18306673214E+03  0.89831745242E+02 0.  0.
         23    2    1    2    0    0  0.43795014876E+01  0.22679031208E+02  0.15782955196E+03  0.18193326786E+03  0.87498731382E+02 0.  0.
        -11    1    4    4    0    0 -0.17058522567E+02  0.51605851404E+02  0.89952507426E+02  0.10509810028E+03  0.00000000000E+00 0.  1.
         11    1    4    4    0    0  0.21438024055E+02 -0.28926820196E+02  0.67877044535E+02  0.76835167579E+02  0.00000000000E+00 0. -1.
        -15    1    3    3    0    0 -0.42112956671E+02 -0.30314938251E+02 -0.11004009674E+03  0.12167365048E+03  0.17770000000E+01 0. -1.
         15    1    3    3    0    0  0.37733455183E+02  0.76359070432E+01 -0.47789455222E+02  0.61393081661E+02  0.17770000000E+01 0.  1.
</event>
<event>
 8    1  0.1798472E-005  0.1890077E+03  0.7546771E-02  0.1063390E+00
        -11   -1    0    0    0    0  0.00000000000E+00  0.00000000000E+00  0.18250000000E+03  0.18250000000E+03  0.00000000000E+00 0. -1.
         11   -1    0    0    0    0 -0.00000000000E+00 -0.00000000000E+00 -0.18250000000E+03  0.18250000000E+03  0.00000000000E+00 0. -1.
         23    2    1    2    0    0 -0.12849346861E+03 -0.74973885112E+01 -0.94485837887E+02  0.17599225723E+03  0.74019718550E+02 0.  0.
         23    2    1    2    0    0  0.12849346861E+03  0.74973885112E+01  0.94485837887E+02  0.18900774277E+03  0.10114134149E+03 0.  0.
        -11    1    4    4    0    0  0.10437452287E+03  0.29889918271E+02  0.10826752319E+03  0.15332744313E+03  0.00000000000E+00 0. -1.
         11    1    4    4    0    0  0.24118945732E+02 -0.22392529760E+02 -0.13781685307E+02  0.35680299637E+02  0.00000000000E+00 0. -1.
        -15    1    3    3    0    0 -0.56036229173E+02 -0.36834886696E+02 -0.25652737221E+02  0.71819833707E+02  0.17770000000E+01 0. -1.
         15    1    3    3    0    0 -0.72457239434E+02  0.29337498184E+02 -0.68833100666E+02  0.10417242352E+03  0.17770000000E+01 0.  1.
</event>
<event>
 8    1  0.1798472E-005  0.1825315E+03  0.7546771E-02  0.1068430E+00
        -11   -1    0    0    0    0  0.00000000000E+00  0.00000000000E+00  0.18250000000E+03  0.18250000000E+03  0.00000000000E+00 0.  1.
         11   -1    0    0    0    0 -0.00000000000E+00 -0.00000000000E+00 -0.18250000000E+03  0.18250000000E+03  0.00000000000E+00 0. -1.
         23    2    1    2    0    0 -0.19017683084E+02  0.15109398784E+03 -0.40499446224E+02  0.18253146291E+03  0.92122008096E+02 0.  0.
         23    2    1    2    0    0  0.19017683084E+02 -0.15109398784E+03  0.40499446224E+02  0.18246853709E+03  0.91997263276E+02 0.  0.
        -11    1    4    4    0    0 -0.11775171493E+02 -0.77389293282E+02  0.61873016812E+02  0.99779895710E+02  0.00000000000E+00 0.  1.
         11    1    4    4    0    0  0.30792854577E+02 -0.73704694562E+02 -0.21373570588E+02  0.82688641379E+02  0.00000000000E+00 0. -1.
        -15    1    3    3    0    0  0.80389140143E+01  0.73838840402E+01  0.21115377150E+02  0.23836165028E+02  0.17770000000E+01 0.  1.
         15    1    3    3    0    0 -0.27056597098E+02  0.14371010380E+03 -0.61614823374E+02  0.15869529788E+03  0.17770000000E+01 0. -1.
</event>
<event>
 8    1  0.1798472E-005  0.1846485E+03  0.7546771E-02  0.1066757E+00
        -11   -1    0    0    0    0  0.00000000000E+00  0.00000000000E+00  0.18250000000E+03  0.18250000000E+03  0.00000000000E+00 0.  1.
         11   -1    0    0    0    0 -0.00000000000E+00 -0.00000000000E+00 -0.18250000000E+03  0.18250000000E+03  0.00000000000E+00 0. -1.
         23    2    1    2    0    0  0.10372845466E+03 -0.10806860521E+03 -0.48479320778E+02  0.18035148421E+03  0.87965888690E+02 0.  0.
         23    2    1    2    0    0 -0.10372845466E+03  0.10806860521E+03  0.48479320778E+02  0.18464851579E+03  0.96469757444E+02 0.  0.
        -11    1    4    4    0    0 -0.10649580384E+03  0.11759447648E+03  0.26921499552E+02  0.16091794267E+03  0.00000000000E+00 0.  1.
         11    1    4    4    0    0  0.27673491752E+01 -0.95258712663E+01  0.21557821226E+02  0.23730573126E+02  0.00000000000E+00 0. -1.
        -15    1    3    3    0    0  0.10026380672E+03 -0.63451232257E+02 -0.61571343523E+02  0.13369023108E+03  0.17770000000E+01 0. -1.
         15    1    3    3    0    0  0.34646479390E+01 -0.44617372957E+02  0.13092022745E+02  0.46661253128E+02  0.17770000000E+01 0.  1.
</event>
<event>
 8    1  0.1798472E-005  0.1861253E+03  0.7546771E-02  0.1065605E+00
        -11   -1    0    0    0    0  0.00000000000E+00  0.00000000000E+00  0.18250000000E+03  0.18250000000E+03  0.00000000000E+00 0.  1.
         11   -1    0    0    0    0 -0.00000000000E+00 -0.00000000000E+00 -0.18250000000E+03  0.18250000000E+03  0.00000000000E+00 0. -1.
         23    2    1    2    0    0  0.97250917884E+02  0.71148591075E+02  0.10560342940E+03  0.17887466833E+03  0.79524836556E+02 0.  0.
         23    2    1    2    0    0 -0.97250917884E+02 -0.71148591075E+02 -0.10560342940E+03  0.18612533167E+03  0.94713735792E+02 0.  0.
        -11    1    4    4    0    0 -0.41113737005E+02 -0.54135526275E+02 -0.31291143443E+01  0.68049878267E+02  0.00000000000E+00 0.  1.
         11    1    4    4    0    0 -0.56137180879E+02 -0.17013064800E+02 -0.10247431505E+03  0.11807545340E+03  0.00000000000E+00 0. -1.
        -15    1    3    3    0    0 -0.63625594180E-01 -0.74645382832E+01  0.33718725066E+02  0.34580826032E+02  0.17770000000E+01 0. -1.
         15    1    3    3    0    0  0.97314543478E+02  0.78613129358E+02  0.71884704330E+02  0.14429384230E+03  0.17770000000E+01 0.  1.
</event>
<event>
 8    1  0.1798472E-005  0.1825011E+03  0.7546771E-02  0.1068454E+00
        -11   -1    0    0    0    0  0.00000000000E+00  0.00000000000E+00  0.18250000000E+03  0.18250000000E+03  0.00000000000E+00 0. -1.
         11   -1    0    0    0    0 -0.00000000000E+00 -0.00000000000E+00 -0.18250000000E+03  0.18250000000E+03  0.00000000000E+00 0.  1.
         23    2    1    2    0    0 -0.17403453936E+02 -0.60852187257E+01  0.15741947020E+03  0.18249891172E+03  0.90471283224E+02 0.  0.
         23    2    1    2    0    0  0.17403453936E+02  0.60852187257E+01 -0.15741947020E+03  0.18250108828E+03  0.90475673689E+02 0.  0.
        -11    1    4    4    0    0  0.35528643251E+01  0.22542819812E+02  0.79125998213E+00  0.22834790613E+02  0.00000000000E+00 0.  1.
         11    1    4    4    0    0  0.13850589611E+02 -0.16457601086E+02 -0.15821073018E+03  0.15966629766E+03  0.00000000000E+00 0. -1.
        -15    1    3    3    0    0 -0.40869350001E+02 -0.31363483850E+02  0.59801786778E+02  0.78951778444E+02  0.17770000000E+01 0.  1.
         15    1    3    3    0    0  0.23465896065E+02  0.25278265124E+02  0.97617683417E+02  0.10354713328E+03  0.17770000000E+01 0. -1.
</event>
<event>
 8    1  0.1798472E-005  0.1829279E+03  0.7546771E-02  0.1068115E+00
        -11   -1    0    0    0    0  0.00000000000E+00  0.00000000000E+00  0.18250000000E+03  0.18250000000E+03  0.00000000000E+00 0. -1.
         11   -1    0    0    0    0 -0.00000000000E+00 -0.00000000000E+00 -0.18250000000E+03  0.18250000000E+03  0.00000000000E+00 0.  1.
         23    2    1    2    0    0  0.60661121015E+02  0.59172108434E+02  0.13337699203E+03  0.18292789127E+03  0.92152489826E+02 0.  0.
         23    2    1    2    0    0 -0.60661121015E+02 -0.59172108434E+02 -0.13337699203E+03  0.18207210873E+03  0.90441808658E+02 0.  0.
        -11    1    4    4    0    0  0.54164409525E+01 -0.44276855362E+02 -0.17634756490E+02  0.47966263038E+02  0.00000000000E+00 0.  1.
         11    1    4    4    0    0 -0.66077561968E+02 -0.14895253072E+02 -0.11574223554E+03  0.13410584569E+03  0.00000000000E+00 0. -1.
        -15    1    3    3    0    0 -0.20086903735E+02  0.27954981521E+02  0.18649323592E+02  0.39190811333E+02  0.17770000000E+01 0.  1.
         15    1    3    3    0    0  0.80748024750E+02  0.31217126914E+02  0.11472766844E+03  0.14373707994E+03  0.17770000000E+01 0. -1.
</event>
<event>
 8    1  0.1798472E-005  0.1833837E+03  0.7546771E-02  0.1067754E+00
        -11   -1    0    0    0    0  0.00000000000E+00  0.00000000000E+00  0.18250000000E+03  0.18250000000E+03  0.00000000000E+00 0.  1.
         11   -1    0    0    0    0 -0.00000000000E+00 -0.00000000000E+00 -0.18250000000E+03  0.18250000000E+03  0.00000000000E+00 0. -1.
         23    2    1    2    0    0  0.26167904858E+02 -0.72717957556E+01 -0.15455139392E+03  0.18338369740E+03  0.94898940190E+02 0.  0.
         23    2    1    2    0    0 -0.26167904858E+02  0.72717957556E+01  0.15455139392E+03  0.18161630260E+03  0.91436916780E+02 0.  0.
        -11    1    4    4    0    0 -0.74208161618E+01  0.31797686554E+02  0.10506802698E+02  0.34300937096E+02  0.00000000000E+00 0. -1.
         11    1    4    4    0    0 -0.18747088696E+02 -0.24525890799E+02  0.14404459122E+03  0.14731536551E+03  0.00000000000E+00 0.  1.
        -15    1    3    3    0    0  0.31806207216E+02 -0.42203858089E+02 -0.12982337642E+03  0.14017869756E+03  0.17770000000E+01 0. -1.
         15    1    3    3    0    0 -0.56383023577E+01  0.34932062334E+02 -0.24728017501E+02  0.43204999837E+02  0.17770000000E+01 0.  1.
</event>
<event>
 8    1  0.1798472E-005  0.1828089E+03  0.7546771E-02  0.1068209E+00
        -11   -1    0    0    0    0  0.00000000000E+00  0.00000000000E+00  0.18250000000E+03  0.18250000000E+03  0.00000000000E+00 0.  1.
         11   -1    0    0    0    0 -0.00000000000E+00 -0.00000000000E+00 -0.18250000000E+03  0.18250000000E+03  0.00000000000E+00 0. -1.
         23    2    1    2    0    0 -0.11661708613E+03  0.39796497772E+02 -0.96639616521E+02  0.18280887962E+03  0.94321603970E+02 0.  0.
         23    2    1    2    0    0  0.11661708613E+03 -0.39796497772E+02  0.96639616521E+02  0.18219112038E+03  0.93118649318E+02 0.  0.
        -11    1    4    4    0    0  0.35205293040E+02  0.18020294132E+02  0.67396932301E+02  0.78144034591E+02  0.00000000000E+00 0.  1.
         11    1    4    4    0    0  0.81411793090E+02 -0.57816791904E+02  0.29242684220E+02  0.10404708579E+03  0.00000000000E+00 0. -1.
        -15    1    3    3    0    0 -0.29728417069E+02  0.52280622088E+02 -0.13018035753E+02  0.61560289239E+02  0.17770000000E+01 0.  1.
         15    1    3    3    0    0 -0.86888669060E+02 -0.12484124316E+02 -0.83621580768E+02  0.12124859038E+03  0.17770000000E+01 0. -1.
</event>
<event>
 8    1  0.1798472E-005  0.1834643E+03  0.7546771E-02  0.1067690E+00
        -11   -1    0    0    0    0  0.00000000000E+00  0.00000000000E+00  0.18250000000E+03  0.18250000000E+03  0.00000000000E+00 0.  1.
         11   -1    0    0    0    0 -0.00000000000E+00 -0.00000000000E+00 -0.18250000000E+03  0.18250000000E+03  0.00000000000E+00 0. -1.
         23    2    1    2    0    0  0.17325952893E+02 -0.15720920117E+02  0.15665130191E+03  0.18346426333E+03  0.92586011674E+02 0.  0.
         23    2    1    2    0    0 -0.17325952893E+02  0.15720920117E+02 -0.15665130191E+03  0.18153573667E+03  0.88703197936E+02 0.  0.
        -11    1    4    4    0    0  0.31460199249E+02 -0.10234066772E+02 -0.36358623816E+02  0.49157194644E+02  0.00000000000E+00 0.  1.
         11    1    4    4    0    0 -0.48786152142E+02  0.25954986889E+02 -0.12029267809E+03  0.13237854202E+03  0.00000000000E+00 0. -1.
        -15    1    3    3    0    0 -0.35095415541E+02  0.59516863868E+00  0.33215384080E+02  0.48357645583E+02  0.17770000000E+01 0. -1.
         15    1    3    3    0    0  0.52421368434E+02 -0.16316088755E+02  0.12343591783E+03  0.13510661775E+03  0.17770000000E+01 0.  1.
</event>
<event>
 8    1  0.1798472E-005  0.1828508E+03  0.7546771E-02  0.1068176E+00
        -11   -1    0    0    0    0  0.00000000000E+00  0.00000000000E+00  0.18250000000E+03  0.18250000000E+03  0.00000000000E+00 0.  1.
         11   -1    0    0    0    0 -0.00000000000E+00 -0.00000000000E+00 -0.18250000000E+03  0.18250000000E+03  0.00000000000E+00 0. -1.
         23    2    1    2    0    0  0.15832015068E+03 -0.38006447867E+01 -0.12443725413E+01  0.18214923008E+03  0.89983768221E+02 0.  0.
         23    2    1    2    0    0 -0.15832015068E+03  0.38006447867E+01  0.12443725413E+01  0.18285076992E+03  0.91395517326E+02 0.  0.
        -11    1    4    4    0    0 -0.14503412309E+03  0.12761473581E+01 -0.30618797612E+02  0.14823641989E+03  0.00000000000E+00 0. -1.
         11    1    4    4    0    0 -0.13286027584E+02  0.25244974286E+01  0.31863170154E+02  0.34614350037E+02  0.00000000000E+00 0.  1.
        -15    1    3    3    0    0  0.60774931927E+01 -0.55219350713E+01  0.26128105475E+02  0.27445642917E+02  0.17770000000E+01 0. -1.
         15    1    3    3    0    0  0.15224265748E+03  0.17212902846E+01 -0.27372478016E+02  0.15470358716E+03  0.17770000000E+01 0.  1.
</event>
<event>
 8    1  0.1798472E-005  0.1825522E+03  0.7546771E-02  0.1068413E+00
        -11   -1    0    0    0    0  0.00000000000E+00  0.00000000000E+00  0.18250000000E+03  0.18250000000E+03  0.00000000000E+00 0.  1.
         11   -1    0    0    0    0 -0.00000000000E+00 -0.00000000000E+00 -0.18250000000E+03  0.18250000000E+03  0.00000000000E+00 0. -1.
         23    2    1    2    0    0 -0.57106122411E+02 -0.20547397501E+02 -0.14735916165E+03  0.18255215039E+03  0.89035163439E+02 0.  0.
         23    2    1    2    0    0  0.57106122411E+02  0.20547397501E+02  0.14735916165E+03  0.18244784961E+03  0.88821115426E+02 0.  0.
        -11    1    4    4    0    0  0.47127365427E+02  0.52657763976E+02  0.11927375282E+03  0.13863641942E+03  0.00000000000E+00 0.  1.
         11    1    4    4    0    0  0.99787569837E+01 -0.32110366475E+02  0.28085408831E+02  0.43811430190E+02  0.00000000000E+00 0. -1.
        -15    1    3    3    0    0 -0.78102745490E+02 -0.30223561023E+00 -0.11405892736E+03  0.13824878603E+03  0.17770000000E+01 0. -1.
         15    1    3    3    0    0  0.20996623079E+02 -0.20245161891E+02 -0.33300234285E+02  0.44303364355E+02  0.17770000000E+01 0.  1.
</event>
<event>
 8    1  0.1798472E-005  0.1830006E+03  0.7546771E-02  0.1068057E+00
        -11   -1    0    0    0    0  0.00000000000E+00  0.00000000000E+00  0.18250000000E+03  0.18250000000E+03  0.00000000000E+00 0. -1.
         11   -1    0    0    0    0 -0.00000000000E+00 -0.00000000000E+00 -0.18250000000E+03  0.18250000000E+03  0.00000000000E+00 0.  1.
         23    2    1    2    0    0  0.15411320983E+03  0.29452753111E+02 -0.19432570411E+02  0.18199939457E+03  0.90154360528E+02 0.  0.
         23    2    1    2    0    0 -0.15411320983E+03 -0.29452753111E+02  0.19432570411E+02  0.18300060543E+03  0.92158834013E+02 0.  0.
        -11    1    4    4    0    0 -0.39395977356E+02 -0.16641009355E+02  0.47796560112E+02  0.64136396708E+02  0.00000000000E+00 0. -1.
         11    1    4    4    0    0 -0.11471723247E+03 -0.12811743756E+02 -0.28363989701E+02  0.11886420872E+03  0.00000000000E+00 0.  1.
        -15    1    3    3    0    0  0.32355001738E+02  0.47860677526E+02 -0.68972536079E+01  0.58208422303E+02  0.17770000000E+01 0.  1.
         15    1    3    3    0    0  0.12175820809E+03 -0.18407924416E+02 -0.12535316803E+02  0.12379097227E+03  0.17770000000E+01 0. -1.
</event>
<event>
 8    1  0.1798472E-005  0.1825577E+03  0.7546771E-02  0.1068409E+00
        -11   -1    0    0    0    0  0.00000000000E+00  0.00000000000E+00  0.18250000000E+03  0.18250000000E+03  0.00000000000E+00 0.  1.
         11   -1    0    0    0    0 -0.00000000000E+00 -0.00000000000E+00 -0.18250000000E+03  0.18250000000E+03  0.00000000000E+00 0. -1.
         23    2    1    2    0    0 -0.49647662691E+02  0.20829852138E+02  0.14883628634E+03  0.18255768687E+03  0.90974148825E+02 0.  0.
         23    2    1    2    0    0  0.49647662691E+02 -0.20829852138E+02 -0.14883628634E+03  0.18244231313E+03  0.90742406503E+02 0.  0.
        -11    1    4    4    0    0  0.81499811761E+01  0.42265913235E+01  0.11628180441E+02  0.14815561001E+02  0.00000000000E+00 0.  1.
         11    1    4    4    0    0  0.41497681515E+02 -0.25056443461E+02 -0.16046446678E+03  0.16762675213E+03  0.00000000000E+00 0. -1.
        -15    1    3    3    0    0 -0.28978970818E+02  0.57006744137E+02  0.92392867824E+02  0.11237948826E+03  0.17770000000E+01 0.  1.
         15    1    3    3    0    0 -0.20668691873E+02 -0.36176892000E+02  0.56443418514E+02  0.70178198616E+02  0.17770000000E+01 0. -1.
</event>
<event>
 8    1  0.1798472E-005  0.1838032E+03  0.7546771E-02  0.1067422E+00
        -11   -1    0    0    0    0  0.00000000000E+00  0.00000000000E+00  0.18250000000E+03  0.18250000000E+03  0.00000000000E+00 0.  1.
         11   -1    0    0    0    0 -0.00000000000E+00 -0.00000000000E+00 -0.18250000000E+03  0.18250000000E+03  0.00000000000E+00 0. -1.
         23    2    1    2    0    0  0.10621042820E+03 -0.52516795385E+02  0.10210924295E+03  0.18119676341E+03  0.91472950746E+02 0.  0.
         23    2    1    2    0    0 -0.10621042820E+03  0.52516795385E+02 -0.10210924295E+03  0.18380323659E+03  0.96533224487E+02 0.  0.
        -11    1    4    4    0    0 -0.73126887313E+02  0.90499329453E+01 -0.68617748602E+01  0.74003559973E+02  0.00000000000E+00 0.  1.
         11    1    4    4    0    0 -0.33083540885E+02  0.43466862440E+02 -0.95247468091E+02  0.10979967662E+03  0.00000000000E+00 0. -1.
        -15    1    3    3    0    0  0.26694957878E+01  0.58265219780E+01  0.51637755869E+02  0.52064288397E+02  0.17770000000E+01 0. -1.
         15    1    3    3    0    0  0.10354093241E+03 -0.58343317363E+02  0.50471487082E+02  0.12913247501E+03  0.17770000000E+01 0.  1.
</event>
<event>
 8    1  0.1798472E-005  0.1836437E+03  0.7546771E-02  0.1067548E+00
        -11   -1    0    0    0    0  0.00000000000E+00  0.00000000000E+00  0.18250000000E+03  0.18250000000E+03  0.00000000000E+00 0.  1.
         11   -1    0    0    0    0 -0.00000000000E+00 -0.00000000000E+00 -0.18250000000E+03  0.18250000000E+03  0.00000000000E+00 0. -1.
         23    2    1    2    0    0  0.12121034285E+03  0.30749763592E+02 -0.96208782457E+02  0.18364365896E+03  0.93975361021E+02 0.  0.
         23    2    1    2    0    0 -0.12121034285E+03 -0.30749763592E+02  0.96208782457E+02  0.18135634104E+03  0.89423137044E+02 0.  0.
        -11    1    4    4    0    0 -0.26600582620E+02  0.24074377382E+02  0.25435207209E+00  0.35878006313E+02  0.00000000000E+00 0. -1.
         11    1    4    4    0    0 -0.94609760231E+02 -0.54824140974E+02  0.95954430385E+02  0.14547833473E+03  0.00000000000E+00 0.  1.
        -15    1    3    3    0    0 -0.92236195355E+01 -0.14930375680E+02 -0.16162374289E+02  0.23924283624E+02  0.17770000000E+01 0.  1.
         15    1    3    3    0    0  0.13043396239E+03  0.45680139272E+02 -0.80046408168E+02  0.15971937533E+03  0.17770000000E+01 0. -1.
</event>
<event>
 8    1  0.1798472E-005  0.1834013E+03  0.7546771E-02  0.1067740E+00
        -11   -1    0    0    0    0  0.00000000000E+00  0.00000000000E+00  0.18250000000E+03  0.18250000000E+03  0.00000000000E+00 0.  1.
         11   -1    0    0    0    0 -0.00000000000E+00 -0.00000000000E+00 -0.18250000000E+03  0.18250000000E+03  0.00000000000E+00 0.  1.
         23    2    1    2    0    0  0.73728023010E+02 -0.45222088993E+02  0.13203389007E+03  0.18159870885E+03  0.89801359779E+02 0.  0.
         23    2    1    2    0    0 -0.73728023010E+02  0.45222088993E+02 -0.13203389007E+03  0.18340129115E+03  0.93392862462E+02 0.  0.
        -11    1    4    4    0    0 -0.33165713161E+02 -0.17977444285E+02 -0.82458441691E+01  0.38615372309E+02  0.00000000000E+00 0.  1.
         11    1    4    4    0    0 -0.40562309849E+02  0.63199533278E+02 -0.12378804590E+03  0.14478591884E+03  0.00000000000E+00 0.  1.
        -15    1    3    3    0    0  0.73719902131E+02 -0.49531694759E+02  0.55120032445E+02  0.10454371555E+03  0.17770000000E+01 0. -1.
         15    1    3    3    0    0  0.81208792465E-02  0.43096057659E+01  0.76913857626E+02  0.77054993295E+02  0.17770000000E+01 0.  1.
</event>
<event>
 8    1  0.1798472E-005  0.1825545E+03  0.7546771E-02  0.1068411E+00
        -11   -1    0    0    0    0  0.00000000000E+00  0.00000000000E+00  0.18250000000E+03  0.18250000000E+03  0.00000000000E+00 0.  1.
         11   -1    0    0    0    0 -0.00000000000E+00 -0.00000000000E+00 -0.18250000000E+03  0.18250000000E+03  0.00000000000E+00 0. -1.
         23    2    1    2    0    0 -0.46545065382E+02 -0.19145020919E+02 -0.14957935036E+03  0.18255452479E+03  0.91756185248E+02 0.  0.
         23    2    1    2    0    0  0.46545065382E+02  0.19145020919E+02  0.14957935036E+03  0.18244547521E+03  0.91539032299E+02 0.  0.
        -11    1    4    4    0    0  0.46294621903E+02 -0.26139591976E+02  0.11052083078E+03  0.12264307694E+03  0.00000000000E+00 0.  1.
         11    1    4    4    0    0  0.25044347854E+00  0.45284612896E+02  0.39058519578E+02  0.59802398269E+02  0.00000000000E+00 0. -1.
        -15    1    3    3    0    0 -0.45325524937E+02 -0.44173552913E+02 -0.14329404302E+03  0.15665901340E+03  0.17770000000E+01 0. -1.
         15    1    3    3    0    0 -0.12195404447E+01  0.25028531993E+02 -0.62853073398E+01  0.25895511387E+02  0.17770000000E+01 0.  1.
</event>
<event>
 8    1  0.1798472E-005  0.1827328E+03  0.7546771E-02  0.1068270E+00
        -11   -1    0    0    0    0  0.00000000000E+00  0.00000000000E+00  0.18250000000E+03  0.18250000000E+03  0.00000000000E+00 0. -1.
         11   -1    0    0    0    0 -0.00000000000E+00 -0.00000000000E+00 -0.18250000000E+03  0.18250000000E+03  0.00000000000E+00 0.  1.
         23    2    1    2    0    0 -0.58055999488E+02  0.63931838278E+02 -0.13233666931E+03  0.18226723977E+03  0.90832668286E+02 0.  0.
         23    2    1    2    0    0  0.58055999488E+02 -0.63931838278E+02  0.13233666931E+03  0.18273276023E+03  0.91763220284E+02 0.  0.
        -11    1    4    4    0    0  0.72645387765E+02 -0.14486928354E+02  0.70976287710E+02  0.10259072509E+03  0.00000000000E+00 0.  1.
         11    1    4    4    0    0 -0.14589388277E+02 -0.49444909924E+02  0.61360381596E+02  0.80142035145E+02  0.00000000000E+00 0. -1.
        -15    1    3    3    0    0 -0.82292741025E+01  0.45045783855E+02 -0.11869517395E+03  0.12723421569E+03  0.17770000000E+01 0.  1.
         15    1    3    3    0    0 -0.49826725385E+02  0.18886054422E+02 -0.13641495356E+02  0.55033024075E+02  0.17770000000E+01 0. -1.
</event>
<event>
 8    1  0.1798472E-005  0.1829429E+03  0.7546771E-02  0.1068103E+00
        -11   -1    0    0    0    0  0.00000000000E+00  0.00000000000E+00  0.18250000000E+03  0.18250000000E+03  0.00000000000E+00 0. -1.
         11   -1    0    0    0    0 -0.00000000000E+00 -0.00000000000E+00 -0.18250000000E+03  0.18250000000E+03  0.00000000000E+00 0.  1.
         23    2    1    2    0    0  0.87806958126E+02 -0.36890003405E+02 -0.12619834432E+03  0.18205711041E+03  0.90265359334E+02 0.  0.
         23    2    1    2    0    0 -0.87806958126E+02  0.36890003405E+02  0.12619834432E+03  0.18294288959E+03  0.92038820599E+02 0.  0.
        -11    1    4    4    0    0 -0.15168982980E+02  0.54343299296E+02  0.67235828991E+02  0.87772142067E+02  0.00000000000E+00 0.  1.
         11    1    4    4    0    0 -0.72637975146E+02 -0.17453295891E+02  0.58962515326E+02  0.95170747524E+02  0.00000000000E+00 0. -1.
        -15    1    3    3    0    0  0.76418309628E+02 -0.20738781591E+02 -0.13789621063E+03  0.15902319876E+03  0.17770000000E+01 0.  1.
         15    1    3    3    0    0  0.11388648498E+02 -0.16151221814E+02  0.11697866312E+02  0.23033911651E+02  0.17770000000E+01 0. -1.
</event>
<event>
 8    1  0.1798472E-005  0.1846391E+03  0.7546771E-02  0.1066765E+00
        -11   -1    0    0    0    0  0.00000000000E+00  0.00000000000E+00  0.18250000000E+03  0.18250000000E+03  0.00000000000E+00 0. -1.
         11   -1    0    0    0    0 -0.00000000000E+00 -0.00000000000E+00 -0.18250000000E+03  0.18250000000E+03  0.00000000000E+00 0.  1.
         23    2    1    2    0    0  0.22044322394E+02 -0.17615983378E+02 -0.15407275532E+03  0.18463909165E+03  0.97759425177E+02 0.  0.
         23    2    1    2    0    0 -0.22044322394E+02  0.17615983378E+02  0.15407275532E+03  0.18036090835E+03  0.89416823411E+02 0.  0.
        -11    1    4    4    0    0 -0.30153596947E+02 -0.24071999952E+02  0.28978510123E+02  0.48254063450E+02  0.00000000000E+00 0.  1.
         11    1    4    4    0    0  0.81092745523E+01  0.41687983331E+02  0.12509424520E+03  0.13210684490E+03  0.00000000000E+00 0. -1.
        -15    1    3    3    0    0 -0.28894981167E+01  0.35818931159E+02 -0.93047359489E+02  0.99761284402E+02  0.17770000000E+01 0. -1.
         15    1    3    3    0    0  0.24933820511E+02 -0.53434914537E+02 -0.61025395834E+02  0.84877807244E+02  0.17770000000E+01 0.  1.
</event>
<event>
 8    1  0.1798472E-005  0.1843272E+03  0.7546771E-02  0.1067010E+00
        -11   -1    0    0    0    0  0.00000000000E+00  0.00000000000E+00  0.18250000000E+03  0.18250000000E+03  0.00000000000E+00 0. -1.
         11   -1    0    0    0    0 -0.00000000000E+00 -0.00000000000E+00 -0.18250000000E+03  0.18250000000E+03  0.00000000000E+00 0. -1.
         23    2    1    2    0    0  0.50676588985E+02 -0.70866754335E+01 -0.15074540779E+03  0.18067281563E+03  0.85440919337E+02 0.  0.
         23    2    1    2    0    0 -0.50676588985E+02  0.70866754335E+01  0.15074540779E+03  0.18432718437E+03  0.92919294481E+02 0.  0.
        -11    1    4    4    0    0 -0.16653616855E+02 -0.36074169409E+02  0.10682558619E+03  0.11397541190E+03  0.00000000000E+00 0. -1.
         11    1    4    4    0    0 -0.34022972130E+02  0.43160844843E+02  0.43919821607E+02  0.70351772473E+02  0.00000000000E+00 0. -1.
        -15    1    3    3    0    0  0.70477992086E+02  0.10091582984E+02 -0.92210652132E+02  0.11651158531E+03  0.17770000000E+01 0. -1.
         15    1    3    3    0    0 -0.19801403101E+02 -0.17178258418E+02 -0.58534755661E+02  0.64161230322E+02  0.17770000000E+01 0.  1.
</event>
<event>
 8    1  0.1798472E-005  0.1829905E+03  0.7546771E-02  0.1068065E+00
        -11   -1    0    0    0    0  0.00000000000E+00  0.00000000000E+00  0.18250000000E+03  0.18250000000E+03  0.00000000000E+00 0.  1.
         11   -1    0    0    0    0 -0.00000000000E+00 -0.00000000000E+00 -0.18250000000E+03  0.18250000000E+03  0.00000000000E+00 0. -1.
         23    2    1    2    0    0  0.88608852022E+02 -0.43611565207E+02 -0.12421992889E+03  0.18200952002E+03  0.89125626872E+02 0.  0.
         23    2    1    2    0    0 -0.88608852022E+02  0.43611565207E+02  0.12421992889E+03  0.18299047998E+03  0.91112171274E+02 0.  0.
        -11    1    4    4    0    0 -0.76748875056E+02  0.68764348030E+02  0.11319725946E+03  0.15307692488E+03  0.00000000000E+00 0. -1.
         11    1    4    4    0    0 -0.11859976966E+02 -0.25152782823E+02  0.11022669435E+02  0.29913555103E+02  0.00000000000E+00 0.  1.
        -15    1    3    3    0    0  0.66503478817E+02 -0.71237608698E+02 -0.87461402091E+02  0.13095863535E+03  0.17770000000E+01 0.  1.
         15    1    3    3    0    0  0.22105373205E+02  0.27626043491E+02 -0.36758526802E+02  0.51050884666E+02  0.17770000000E+01 0. -1.
</event>
<event>
 8    1  0.1798472E-005  0.1838611E+03  0.7546771E-02  0.1067377E+00
        -11   -1    0    0    0    0  0.00000000000E+00  0.00000000000E+00  0.18250000000E+03  0.18250000000E+03  0.00000000000E+00 0. -1.
         11   -1    0    0    0    0 -0.00000000000E+00 -0.00000000000E+00 -0.18250000000E+03  0.18250000000E+03  0.00000000000E+00 0.  1.
         23    2    1    2    0    0 -0.66623892022E+02 -0.39727653301E+02 -0.13836197562E+03  0.18386106968E+03  0.92972185212E+02 0.  0.
         23    2    1    2    0    0  0.66623892022E+02  0.39727653301E+02  0.13836197562E+03  0.18113893032E+03  0.87465686722E+02 0.  0.
        -11    1    4    4    0    0  0.73262610096E+02  0.33845311235E+02  0.14766872890E+03  0.16828240736E+03  0.00000000000E+00 0. -1.
         11    1    4    4    0    0 -0.66387180745E+01  0.58823420658E+01 -0.93067532838E+01  0.12856522957E+02  0.00000000000E+00 0.  1.
        -15    1    3    3    0    0 -0.78481303408E+02 -0.48864395831E+02 -0.14094247545E+03  0.16856744430E+03  0.17770000000E+01 0.  1.
         15    1    3    3    0    0  0.11857411387E+02  0.91367425305E+01  0.25804998301E+01  0.15293625379E+02  0.17770000000E+01 0. -1.
</event>
<event>
 8    1  0.1798472E-005  0.1853671E+03  0.7546771E-02  0.1066195E+00
        -11   -1    0    0    0    0  0.00000000000E+00  0.00000000000E+00  0.18250000000E+03  0.18250000000E+03  0.00000000000E+00 0.  1.
         11   -1    0    0    0    0 -0.00000000000E+00 -0.00000000000E+00 -0.18250000000E+03  0.18250000000E+03  0.00000000000E+00 0. -1.
         23    2    1    2    0    0 -0.12974392749E+02  0.37162609955E+02 -0.15716518687E+03  0.18536713585E+03  0.90059339567E+02 0.  0.
         23    2    1    2    0    0  0.12974392749E+02 -0.37162609955E+02  0.15716518687E+03  0.17963286415E+03  0.77573677692E+02 0.  0.
        -11    1    4    4    0    0  0.29620904025E+02 -0.37831676672E+02  0.15565782913E+03  0.16290486022E+03  0.00000000000E+00 0.  1.
         11    1    4    4    0    0 -0.16646511276E+02  0.66906671630E+00  0.15073577457E+01  0.16728003925E+02  0.00000000000E+00 0. -1.
        -15    1    3    3    0    0 -0.23002140192E+02  0.64523149169E+02 -0.11896170660E+03  0.13728576255E+03  0.17770000000E+01 0. -1.
         15    1    3    3    0    0  0.10027747444E+02 -0.27360539214E+02 -0.38203480272E+02  0.48081373303E+02  0.17770000000E+01 0.  1.
</event>
<event>
 8    1  0.1798472E-005  0.1826070E+03  0.7546771E-02  0.1068370E+00
        -11   -1    0    0    0    0  0.00000000000E+00  0.00000000000E+00  0.18250000000E+03  0.18250000000E+03  0.00000000000E+00 0. -1.
         11   -1    0    0    0    0 -0.00000000000E+00 -0.00000000000E+00 -0.18250000000E+03  0.18250000000E+03  0.00000000000E+00 0.  1.
         23    2    1    2    0    0  0.18620694068E+02 -0.50390605070E+00  0.15683315895E+03  0.18239302132E+03  0.91233712580E+02 0.  0.
         23    2    1    2    0    0 -0.18620694068E+02  0.50390605070E+00 -0.15683315895E+03  0.18260697868E+03  0.91660704494E+02 0.  0.
        -11    1    4    4    0    0 -0.15011737326E+02  0.32464427255E+02 -0.14332736878E+03  0.14772280100E+03  0.00000000000E+00 0.  1.
         11    1    4    4    0    0 -0.36089567425E+01 -0.31960521204E+02 -0.13505790173E+02  0.34884177683E+02  0.00000000000E+00 0. -1.
        -15    1    3    3    0    0  0.99523283343E+01  0.42136661204E+02  0.45438110801E+02  0.62787950268E+02  0.17770000000E+01 0.  1.
         15    1    3    3    0    0  0.86683657342E+01 -0.42640567254E+02  0.11139504815E+03  0.11960507105E+03  0.17770000000E+01 0. -1.
</event>
<event>
 8    1  0.1798472E-005  0.1831401E+03  0.7546771E-02  0.1067946E+00
        -11   -1    0    0    0    0  0.00000000000E+00  0.00000000000E+00  0.18250000000E+03  0.18250000000E+03  0.00000000000E+00 0.  1.
         11   -1    0    0    0    0 -0.00000000000E+00 -0.00000000000E+00 -0.18250000000E+03  0.18250000000E+03  0.00000000000E+00 0. -1.
         23    2    1    2    0    0  0.12911765522E+03 -0.35797614098E+02  0.84888428603E+02  0.18185991858E+03  0.88961489494E+02 0.  0.
         23    2    1    2    0    0 -0.12911765522E+03  0.35797614098E+02 -0.84888428603E+02  0.18314008142E+03  0.91550019368E+02 0.  0.
        -11    1    4    4    0    0 -0.21693709043E+01  0.31854130881E+02 -0.31076686231E+01  0.32078800298E+02  0.00000000000E+00 0. -1.
         11    1    4    4    0    0 -0.12694828431E+03  0.39434832167E+01 -0.81780759980E+02  0.15106128112E+03  0.00000000000E+00 0.  1.
        -15    1    3    3    0    0  0.27450263127E+02 -0.26387530848E+02  0.68561912220E+02  0.78445600682E+02  0.17770000000E+01 0.  1.
         15    1    3    3    0    0  0.10166739209E+03 -0.94100832494E+01  0.16326516383E+02  0.10341431790E+03  0.17770000000E+01 0. -1.
</event>
<event>
 8    1  0.1798472E-005  0.1876634E+03  0.7546771E-02  0.1064417E+00
        -11   -1    0    0    0    0  0.00000000000E+00  0.00000000000E+00  0.18250000000E+03  0.18250000000E+03  0.00000000000E+00 0. -1.
         11   -1    0    0    0    0 -0.00000000000E+00 -0.00000000000E+00 -0.18250000000E+03  0.18250000000E+03  0.00000000000E+00 0.  1.
         23    2    1    2    0    0 -0.38133714177E+02 -0.15978269405E+02 -0.15176383704E+03  0.18766344223E+03  0.10235145366E+03 0.  0.
         23    2    1    2    0    0  0.38133714177E+02  0.15978269405E+02  0.15176383704E+03  0.17733655777E+03  0.81893267345E+02 0.  0.
        -11    1    4    4    0    0  0.18650902411E+01  0.19270628492E+02 -0.18650006773E+01  0.19450293355E+02  0.00000000000E+00 0.  1.
         11    1    4    4    0    0  0.36268623936E+02 -0.32923590870E+01  0.15362883772E+03  0.15788626441E+03  0.00000000000E+00 0. -1.
        -15    1    3    3    0    0  0.28525927147E+02 -0.20940909365E+02 -0.22061066154E+02  0.41738454373E+02  0.17770000000E+01 0. -1.
         15    1    3    3    0    0 -0.66659641325E+02  0.49626399599E+01 -0.12970277089E+03  0.14592498786E+03  0.17770000000E+01 0.  1.
</event>
<event>
 8    1  0.1798472E-005  0.1860087E+03  0.7546771E-02  0.1065696E+00
        -11   -1    0    0    0    0  0.00000000000E+00  0.00000000000E+00  0.18250000000E+03  0.18250000000E+03  0.00000000000E+00 0. -1.
         11   -1    0    0    0    0 -0.00000000000E+00 -0.00000000000E+00 -0.18250000000E+03  0.18250000000E+03  0.00000000000E+00 0.  1.
         23    2    1    2    0    0 -0.56157423895E+02  0.29287923172E+01 -0.15180495724E+03  0.17899133923E+03  0.76360463557E+02 0.  0.
         23    2    1    2    0    0  0.56157423895E+02 -0.29287923172E+01  0.15180495724E+03  0.18600866077E+03  0.91609184886E+02 0.  0.
        -11    1    4    4    0    0  0.53704491449E+02  0.36646776091E+02  0.72763941383E+02  0.97579453603E+02  0.00000000000E+00 0. -1.
         11    1    4    4    0    0  0.24529324456E+01 -0.39575568409E+02  0.79041015856E+02  0.88429207166E+02  0.00000000000E+00 0.  1.
        -15    1    3    3    0    0 -0.40091441371E+02 -0.17871443871E+02 -0.14538602783E+03  0.15187813205E+03  0.17770000000E+01 0.  1.
         15    1    3    3    0    0 -0.16065982524E+02  0.20800236188E+02 -0.64189294072E+01  0.27113207182E+02  0.17770000000E+01 0. -1.
</event>
<event>
 8    1  0.1798472E-005  0.1827195E+03  0.7546771E-02  0.1068280E+00
        -11   -1    0    0    0    0  0.00000000000E+00  0.00000000000E+00  0.18250000000E+03  0.18250000000E+03  0.00000000000E+00 0.  1.
         11   -1    0    0    0    0 -0.00000000000E+00 -0.00000000000E+00 -0.18250000000E+03  0.18250000000E+03  0.00000000000E+00 0. -1.
         23    2    1    2    0    0  0.35958420497E+02 -0.86972672342E+02 -0.12706838979E+03  0.18228045010E+03  0.90678184070E+02 0.  0.
         23    2    1    2    0    0 -0.35958420497E+02  0.86972672342E+02  0.12706838979E+03  0.18271954990E+03  0.91557656644E+02 0.  0.
        -11    1    4    4    0    0 -0.29811803627E+02  0.37844059899E+02  0.12409546333E+03  0.13311874596E+03  0.00000000000E+00 0.  1.
         11    1    4    4    0    0 -0.61466168702E+01  0.49128612444E+02  0.29729264603E+01  0.49600803938E+02  0.00000000000E+00 0. -1.
        -15    1    3    3    0    0  0.64818460969E+02 -0.63255748799E+02 -0.10571011813E+03  0.13921389816E+03  0.17770000000E+01 0. -1.
         15    1    3    3    0    0 -0.28860040472E+02 -0.23716923543E+02 -0.21358271668E+02  0.43066551941E+02  0.17770000000E+01 0.  1.
</event>
<event>
 8    1  0.1798472E-005  0.1825512E+03  0.7546771E-02  0.1068414E+00
        -11   -1    0    0    0    0  0.00000000000E+00  0.00000000000E+00  0.18250000000E+03  0.18250000000E+03  0.00000000000E+00 0. -1.
         11   -1    0    0    0    0 -0.00000000000E+00 -0.00000000000E+00 -0.18250000000E+03  0.18250000000E+03  0.00000000000E+00 0.  1.
         23    2    1    2    0    0  0.20534089275E+02 -0.73277386524E+02  0.13850137340E+03  0.18244884598E+03  0.91179640101E+02 0.  0.
         23    2    1    2    0    0 -0.20534089275E+02  0.73277386524E+02 -0.13850137340E+03  0.18255115402E+03  0.91384184643E+02 0.  0.
        -11    1    4    4    0    0 -0.42243307825E+02  0.74084901478E+02 -0.68896317189E+02  0.10963472171E+03  0.00000000000E+00 0. -1.
         11    1    4    4    0    0  0.21709218550E+02 -0.80751495455E+00 -0.69605056208E+02  0.72916432306E+02  0.00000000000E+00 0.  1.
        -15    1    3    3    0    0  0.46945070371E+02 -0.77660634057E+02  0.11692173184E+03  0.14801642753E+03  0.17770000000E+01 0. -1.
         15    1    3    3    0    0 -0.26410981096E+02  0.43832475335E+01  0.21579641557E+02  0.34432418447E+02  0.17770000000E+01 0.  1.
</event>
<event>
 8    1  0.1798472E-005  0.1825328E+03  0.7546771E-02  0.1068429E+00
        -11   -1    0    0    0    0  0.00000000000E+00  0.00000000000E+00  0.18250000000E+03  0.18250000000E+03  0.00000000000E+00 0.  1.
         11   -1    0    0    0    0 -0.00000000000E+00 -0.00000000000E+00 -0.18250000000E+03  0.18250000000E+03  0.00000000000E+00 0. -1.
         23    2    1    2    0    0 -0.19072035892E+02  0.15266539967E+03  0.33815450196E+02  0.18246723982E+03  0.92088773068E+02 0.  0.
         23    2    1    2    0    0  0.19072035892E+02 -0.15266539967E+03 -0.33815450196E+02  0.18253276018E+03  0.92218528817E+02 0.  0.
        -11    1    4    4    0    0 -0.95910862635E+01 -0.27275681130E+02 -0.44930397007E+02  0.53429320527E+02  0.00000000000E+00 0.  1.
         11    1    4    4    0    0  0.28663122155E+02 -0.12538971854E+03  0.11114946811E+02  0.12910343965E+03  0.00000000000E+00 0. -1.
        -15    1    3    3    0    0  0.19037931077E+02  0.96465050983E+02  0.53226028484E+02  0.11182180788E+03  0.17770000000E+01 0.  1.
         15    1    3    3    0    0 -0.38109966969E+02  0.56200348689E+02 -0.19410578288E+02  0.70645431937E+02  0.17770000000E+01 0. -1.
</event>
<event>
 8    1  0.1798472E-005  0.1829050E+03  0.7546771E-02  0.1068133E+00
        -11   -1    0    0    0    0  0.00000000000E+00  0.00000000000E+00  0.18250000000E+03  0.18250000000E+03  0.00000000000E+00 0. -1.
         11   -1    0    0    0    0 -0.00000000000E+00 -0.00000000000E+00 -0.18250000000E+03  0.18250000000E+03  0.00000000000E+00 0.  1.
         23    2    1    2    0    0 -0.14044453619E+03  0.72087514715E+02 -0.13781295398E+02  0.18290501383E+03  0.91340256509E+02 0.  0.
         23    2    1    2    0    0  0.14044453619E+03 -0.72087514715E+02  0.13781295398E+02  0.18209498617E+03  0.89707203513E+02 0.  0.
        -11    1    4    4    0    0  0.84622525518E+01 -0.42320546287E+02 -0.11020419229E+02  0.44543102679E+02  0.00000000000E+00 0.  1.
         11    1    4    4    0    0  0.13198228364E+03 -0.29766968428E+02  0.24801714627E+02  0.13755188349E+03  0.00000000000E+00 0. -1.
        -15    1    3    3    0    0 -0.61214361371E+02  0.60133799376E+02 -0.44980111416E+02  0.96900154888E+02  0.17770000000E+01 0.  1.
         15    1    3    3    0    0 -0.79230174817E+02  0.11953715339E+02  0.31198816018E+02  0.86004858943E+02  0.17770000000E+01 0. -1.
</event>
<event>
 8    1  0.1798472E-005  0.1835275E+03  0.7546771E-02  0.1067640E+00
        -11   -1    0    0    0    0  0.00000000000E+00  0.00000000000E+00  0.18250000000E+03  0.18250000000E+03  0.00000000000E+00 0. -1.
         11   -1    0    0    0    0 -0.00000000000E+00 -0.00000000000E+00 -0.18250000000E+03  0.18250000000E+03  0.00000000000E+00 0.  1.
         23    2    1    2    0    0  0.44928283506E+02 -0.14668412173E+03  0.32115384446E+02  0.18352748812E+03  0.95478577449E+02 0.  0.
         23    2    1    2    0    0 -0.44928283506E+02  0.14668412173E+03 -0.32115384446E+02  0.18147251188E+03  0.91466345859E+02 0.  0.
        -11    1    4    4    0    0 -0.13166500478E+02  0.84961029710E+02  0.27190366080E+02  0.90172331188E+02  0.00000000000E+00 0. -1.
         11    1    4    4    0    0 -0.31761783027E+02  0.61723092017E+02 -0.59305750526E+02  0.91300180693E+02  0.00000000000E+00 0.  1.
        -15    1    3    3    0    0  0.31506057094E+02 -0.10377143316E+03  0.66207041573E+02  0.12707349077E+03  0.17770000000E+01 0. -1.
         15    1    3    3    0    0  0.13422226412E+02 -0.42912688562E+02 -0.34091657128E+02  0.56453997345E+02  0.17770000000E+01 0.  1.
</event>
<event>
 8    1  0.1798472E-005  0.1826217E+03  0.7546771E-02  0.1068358E+00
        -11   -1    0    0    0    0  0.00000000000E+00  0.00000000000E+00  0.18250000000E+03  0.18250000000E+03  0.00000000000E+00 0.  1.
         11   -1    0    0    0    0 -0.00000000000E+00 -0.00000000000E+00 -0.18250000000E+03  0.18250000000E+03  0.00000000000E+00 0. -1.
         23    2    1    2    0    0  0.78239516850E+02  0.44948009021E+02 -0.13047351437E+03  0.18262170110E+03  0.90474318171E+02 0.  0.
         23    2    1    2    0    0 -0.78239516850E+02 -0.44948009021E+02  0.13047351437E+03  0.18237829890E+03  0.89982000692E+02 0.  0.
        -11    1    4    4    0    0 -0.77346528652E+02 -0.53316303722E+02  0.14067191523E+03  0.16915584965E+03  0.00000000000E+00 0.  1.
         11    1    4    4    0    0 -0.89298819775E+00  0.83682947006E+01 -0.10198400863E+02  0.13222449254E+02  0.00000000000E+00 0. -1.
        -15    1    3    3    0    0  0.92430772392E+02  0.15832161135E+02 -0.10860354602E+03  0.14349910435E+03  0.17770000000E+01 0.  1.
         15    1    3    3    0    0 -0.14191255542E+02  0.29115847886E+02 -0.21869968347E+02  0.39122596750E+02  0.17770000000E+01 0. -1.
</event>
<event>
 8    1  0.1798472E-005  0.1835921E+03  0.7546771E-02  0.1067589E+00
        -11   -1    0    0    0    0  0.00000000000E+00  0.00000000000E+00  0.18250000000E+03  0.18250000000E+03  0.00000000000E+00 0.  1.
         11   -1    0    0    0    0 -0.00000000000E+00 -0.00000000000E+00 -0.18250000000E+03  0.18250000000E+03  0.00000000000E+00 0. -1.
         23    2    1    2    0    0 -0.44210430437E+02  0.12228840757E+02 -0.15043803543E+03  0.18359209881E+03  0.94711929219E+02 0.  0.
         23    2    1    2    0    0  0.44210430437E+02 -0.12228840757E+02  0.15043803543E+03  0.18140790119E+03  0.90405295208E+02 0.  0.
        -11    1    4    4    0    0 -0.23236387128E+02  0.32768845241E+01  0.11379402042E+02  0.26079847580E+02  0.00000000000E+00 0. -1.
         11    1    4    4    0    0  0.67446817565E+02 -0.15505725282E+02  0.13905863339E+03  0.15532805361E+03  0.00000000000E+00 0.  1.
        -15    1    3    3    0    0  0.12948449109E+01 -0.31080876541E+00  0.13142314481E+02  0.13328592737E+02  0.17770000000E+01 0.  1.
         15    1    3    3    0    0 -0.45505275348E+02  0.12539649523E+02 -0.16358034991E+03  0.17026350608E+03  0.17770000000E+01 0. -1.
</event>
<event>
 8    1  0.1798472E-005  0.1826293E+03  0.7546771E-02  0.1068352E+00
        -11   -1    0    0    0    0  0.00000000000E+00  0.00000000000E+00  0.18250000000E+03  0.18250000000E+03  0.00000000000E+00 0.  1.
         11   -1    0    0    0    0 -0.00000000000E+00 -0.00000000000E+00 -0.18250000000E+03  0.18250000000E+03  0.00000000000E+00 0. -1.
         23    2    1    2    0    0 -0.25135219116E+02  0.13675370561E+03 -0.76090889769E+02  0.18237066124E+03  0.90199109392E+02 0.  0.
         23    2    1    2    0    0  0.25135219116E+02 -0.13675370561E+03  0.76090889769E+02  0.18262933876E+03  0.90720982313E+02 0.  0.
        -11    1    4    4    0    0  0.43507172184E+02 -0.60825807020E+02  0.72912682953E+02  0.10444573791E+03  0.00000000000E+00 0. -1.
         11    1    4    4    0    0 -0.18371953068E+02 -0.75927898595E+02  0.31782068152E+01  0.78183600858E+02  0.00000000000E+00 0.  1.
        -15    1    3    3    0    0 -0.31464708477E+02  0.14819165959E+03 -0.75215868590E+02  0.16914898896E+03  0.17770000000E+01 0. -1.
         15    1    3    3    0    0  0.63294893608E+01 -0.11437953973E+02 -0.87502117876E+00  0.13221672274E+02  0.17770000000E+01 0.  1.
</event>
<event>
 8    1  0.1798472E-005  0.1827813E+03  0.7546771E-02  0.1068231E+00
        -11   -1    0    0    0    0  0.00000000000E+00  0.00000000000E+00  0.18250000000E+03  0.18250000000E+03  0.00000000000E+00 0.  1.
         11   -1    0    0    0    0 -0.00000000000E+00 -0.00000000000E+00 -0.18250000000E+03  0.18250000000E+03  0.00000000000E+00 0. -1.
         23    2    1    2    0    0 -0.77052443654E+02 -0.10535981868E+02  0.13727418580E+03  0.18221867891E+03  0.91166654385E+02 0.  0.
         23    2    1    2    0    0  0.77052443654E+02  0.10535981868E+02 -0.13727418580E+03  0.18278132109E+03  0.92286094648E+02 0.  0.
        -11    1    4    4    0    0  0.26052899792E+02 -0.96787127015E+01  0.68030130796E+01  0.28613144778E+02  0.00000000000E+00 0.  1.
         11    1    4    4    0    0  0.50999543862E+02  0.20214694569E+02 -0.14407719888E+03  0.15416817631E+03  0.00000000000E+00 0. -1.
        -15    1    3    3    0    0 -0.81694317873E+02 -0.13868258043E+02  0.54425888608E+02  0.99154552259E+02  0.17770000000E+01 0.  1.
         15    1    3    3    0    0  0.46418742191E+01  0.33322761752E+01  0.82848297188E+02  0.83064126654E+02  0.17770000000E+01 0. -1.
</event>
<event>
 8    1  0.1798472E-005  0.1826563E+03  0.7546771E-02  0.1068330E+00
        -11   -1    0    0    0    0  0.00000000000E+00  0.00000000000E+00  0.18250000000E+03  0.18250000000E+03  0.00000000000E+00 0.  1.
         11   -1    0    0    0    0 -0.00000000000E+00 -0.00000000000E+00 -0.18250000000E+03  0.18250000000E+03  0.00000000000E+00 0. -1.
         23    2    1    2    0    0 -0.57897051784E+02  0.48145093839E+02 -0.14065313425E+03  0.18265634603E+03  0.88938281434E+02 0.  0.
         23    2    1    2    0    0  0.57897051784E+02 -0.48145093839E+02  0.14065313425E+03  0.18234365397E+03  0.88294310706E+02 0.  0.
        -11    1    4    4    0    0  0.80616909442E+02 -0.34346305795E+02  0.93015034582E+02  0.12779104612E+03  0.00000000000E+00 0.  1.
         11    1    4    4    0    0 -0.22719857658E+02 -0.13798788044E+02  0.47638099668E+02  0.54552607852E+02  0.00000000000E+00 0. -1.
        -15    1    3    3    0    0 -0.13025973876E+02  0.37717893848E+02 -0.12908846030E+03  0.13512699147E+03  0.17770000000E+01 0. -1.
         15    1    3    3    0    0 -0.44871077908E+02  0.10427199991E+02 -0.11564673948E+02  0.47529354559E+02  0.17770000000E+01 0.  1.
</event>
<event>
 8    1  0.1798472E-005  0.1912571E+03  0.7546771E-02  0.1061690E+00
        -11   -1    0    0    0    0  0.00000000000E+00  0.00000000000E+00  0.18250000000E+03  0.18250000000E+03  0.00000000000E+00 0.  1.
         11   -1    0    0    0    0 -0.00000000000E+00 -0.00000000000E+00 -0.18250000000E+03  0.18250000000E+03  0.00000000000E+00 0. -1.
         23    2    1    2    0    0  0.50618470687E+01 -0.29744356547E+02  0.14411537571E+03  0.19125708791E+03  0.12206425815E+03 0.  0.
         23    2    1    2    0    0 -0.50618470687E+01  0.29744356547E+02 -0.14411537571E+03  0.17374291209E+03  0.92233448062E+02 0.  0.
        -11    1    4    4    0    0 -0.99998082623E+01  0.57484426049E+02 -0.12942007889E+03  0.14196482741E+03  0.00000000000E+00 0. -1.
         11    1    4    4    0    0  0.49379611937E+01 -0.27740069502E+02 -0.14695296827E+02  0.31778084674E+02  0.00000000000E+00 0.  1.
        -15    1    3    3    0    0 -0.23703658886E+01 -0.75967649012E+02  0.68663622967E+02  0.10244292645E+03  0.17770000000E+01 0.  1.
         15    1    3    3    0    0  0.74322129572E+01  0.46223292465E+02  0.75451752746E+02  0.88814161467E+02  0.17770000000E+01 0. -1.
</event>
<event>
 8    1  0.1798472E-005  0.1827066E+03  0.7546771E-02  0.1068290E+00
        -11   -1    0    0    0    0  0.00000000000E+00  0.00000000000E+00  0.18250000000E+03  0.18250000000E+03  0.00000000000E+00 0.  1.
         11   -1    0    0    0    0 -0.00000000000E+00 -0.00000000000E+00 -0.18250000000E+03  0.18250000000E+03  0.00000000000E+00 0. -1.
         23    2    1    2    0    0 -0.11699385217E+03 -0.76749372422E+02  0.73003258685E+02  0.18229336322E+03  0.91232488093E+02 0.  0.
         23    2    1    2    0    0  0.11699385217E+03  0.76749372422E+02 -0.73003258685E+02  0.18270663678E+03  0.92055481800E+02 0.  0.
        -11    1    4    4    0    0  0.61681261802E+01 -0.16341064104E+02  0.51623862135E+01  0.18213357408E+02  0.00000000000E+00 0.  1.
         11    1    4    4    0    0  0.11082572599E+03  0.93090436527E+02 -0.78165644898E+02  0.16449327937E+03  0.00000000000E+00 0. -1.
        -15    1    3    3    0    0 -0.12381901678E+03 -0.87442343637E+02  0.75324013100E+02  0.16927544729E+03  0.17770000000E+01 0.  1.
         15    1    3    3    0    0  0.68251646034E+01  0.10692971215E+02 -0.23207544150E+01  0.13017915936E+02  0.17770000000E+01 0. -1.
</event>
<event>
 8    1  0.1798472E-005  0.1842559E+03  0.7546771E-02  0.1067066E+00
        -11   -1    0    0    0    0  0.00000000000E+00  0.00000000000E+00  0.18250000000E+03  0.18250000000E+03  0.00000000000E+00 0.  1.
         11   -1    0    0    0    0 -0.00000000000E+00 -0.00000000000E+00 -0.18250000000E+03  0.18250000000E+03  0.00000000000E+00 0. -1.
         23    2    1    2    0    0  0.98318570570E+02  0.24709727243E+02  0.12475209982E+03  0.18425590479E+03  0.90055761070E+02 0.  0.
         23    2    1    2    0    0 -0.98318570570E+02 -0.24709727243E+02 -0.12475209982E+03  0.18074409521E+03  0.82633102353E+02 0.  0.
        -11    1    4    4    0    0 -0.10897909222E+03 -0.14060303096E+02 -0.12396573907E+03  0.16565518141E+03  0.00000000000E+00 0. -1.
         11    1    4    4    0    0  0.10660521651E+02 -0.10649424147E+02 -0.78636075324E+00  0.15088913804E+02  0.00000000000E+00 0.  1.
        -15    1    3    3    0    0  0.55296010076E+02  0.58661138998E+02  0.70267517264E+02  0.10695540973E+03  0.17770000000E+01 0.  1.
         15    1    3    3    0    0  0.43022560494E+02 -0.33951411755E+02  0.54484582555E+02  0.77300495062E+02  0.17770000000E+01 0. -1.
</event>
<event>
 8    1  0.1798472E-005  0.1828601E+03  0.7546771E-02  0.1068169E+00
        -11   -1    0    0    0    0  0.00000000000E+00  0.00000000000E+00  0.18250000000E+03  0.18250000000E+03  0.00000000000E+00 0.  1.
         11   -1    0    0    0    0 -0.00000000000E+00 -0.00000000000E+00 -0.18250000000E+03  0.18250000000E+03  0.00000000000E+00 0. -1.
         23    2    1    2    0    0  0.90179752740E+02 -0.42157735967E+02  0.12266189790E+03  0.18213991976E+03  0.90660612561E+02 0.  0.
         23    2    1    2    0    0 -0.90179752740E+02  0.42157735967E+02 -0.12266189790E+03  0.18286008024E+03  0.92098888384E+02 0.  0.
        -11    1    4    4    0    0  0.10110050408E+02  0.13819103048E+02  0.52107619214E+01  0.17897842555E+02  0.00000000000E+00 0.  1.
         11    1    4    4    0    0 -0.10028980315E+03  0.28338632920E+02 -0.12787265982E+03  0.16496223768E+03  0.00000000000E+00 0. -1.
        -15    1    3    3    0    0  0.16407333578E+01  0.82230635251E+01  0.64005122302E+02  0.64576498741E+02  0.17770000000E+01 0. -1.
         15    1    3    3    0    0  0.88539019382E+02 -0.50380799493E+02  0.58656775596E+02  0.11756342102E+03  0.17770000000E+01 0.  1.
</event>
<event>
 8    1  0.1798472E-005  0.1829767E+03  0.7546771E-02  0.1068076E+00
        -11   -1    0    0    0    0  0.00000000000E+00  0.00000000000E+00  0.18250000000E+03  0.18250000000E+03  0.00000000000E+00 0.  1.
         11   -1    0    0    0    0 -0.00000000000E+00 -0.00000000000E+00 -0.18250000000E+03  0.18250000000E+03  0.00000000000E+00 0. -1.
         23    2    1    2    0    0 -0.11001949549E+03 -0.38266569880E+02 -0.10861474170E+03  0.18297668587E+03  0.90081550277E+02 0.  0.
         23    2    1    2    0    0  0.11001949549E+03  0.38266569880E+02  0.10861474170E+03  0.18202331413E+03  0.88128911332E+02 0.  0.
        -11    1    4    4    0    0  0.11524926305E+03  0.50095004665E+02  0.11234569163E+03  0.16856291571E+03  0.00000000000E+00 0.  1.
         11    1    4    4    0    0 -0.52297675602E+01 -0.11828434785E+02 -0.37309499237E+01  0.13460398417E+02  0.00000000000E+00 0. -1.
        -15    1    3    3    0    0 -0.63322547132E+02 -0.58368143162E+02 -0.98960308340E+02  0.13119788667E+03  0.17770000000E+01 0. -1.
         15    1    3    3    0    0 -0.46696948356E+02  0.20101573282E+02 -0.96544333624E+01  0.51778799202E+02  0.17770000000E+01 0.  1.
</event>
<event>
 8    1  0.1798472E-005  0.1826639E+03  0.7546771E-02  0.1068324E+00
        -11   -1    0    0    0    0  0.00000000000E+00  0.00000000000E+00  0.18250000000E+03  0.18250000000E+03  0.00000000000E+00 0.  1.
         11   -1    0    0    0    0 -0.00000000000E+00 -0.00000000000E+00 -0.18250000000E+03  0.18250000000E+03  0.00000000000E+00 0. -1.
         23    2    1    2    0    0 -0.14284669295E+03 -0.62343095985E+02  0.26494701822E+02  0.18233608286E+03  0.90844034391E+02 0.  0.
         23    2    1    2    0    0  0.14284669295E+03  0.62343095985E+02 -0.26494701822E+02  0.18266391714E+03  0.91500262811E+02 0.  0.
        -11    1    4    4    0    0  0.13210966112E+03  0.76131783008E+02 -0.43210379344E+02  0.15848074907E+03  0.00000000000E+00 0.  1.
         11    1    4    4    0    0  0.10737031837E+02 -0.13788687024E+02  0.16715677522E+02  0.24183168062E+02  0.00000000000E+00 0. -1.
        -15    1    3    3    0    0 -0.13610009122E+03 -0.60970049705E+02 -0.58115927572E+01  0.14925653798E+03  0.17770000000E+01 0. -1.
         15    1    3    3    0    0 -0.67466017329E+01 -0.13730462794E+01  0.32306294579E+02  0.33079544880E+02  0.17770000000E+01 0.  1.
</event>
<event>
 8    1  0.1798472E-005  0.1826127E+03  0.7546771E-02  0.1068365E+00
        -11   -1    0    0    0    0  0.00000000000E+00  0.00000000000E+00  0.18250000000E+03  0.18250000000E+03  0.00000000000E+00 0.  1.
         11   -1    0    0    0    0 -0.00000000000E+00 -0.00000000000E+00 -0.18250000000E+03  0.18250000000E+03  0.00000000000E+00 0. -1.
         23    2    1    2    0    0 -0.19950367125E+02 -0.16330374207E+02 -0.15622155193E+03  0.18238728541E+03  0.90527621875E+02 0.  0.
         23    2    1    2    0    0  0.19950367125E+02  0.16330374207E+02  0.15622155193E+03  0.18261271459E+03  0.90980942908E+02 0.  0.
        -11    1    4    4    0    0 -0.30930352214E+02  0.26245193331E+02  0.88281301769E+02  0.97154954084E+02  0.00000000000E+00 0.  1.
         11    1    4    4    0    0  0.50880719339E+02 -0.99148191247E+01  0.67940250160E+02  0.85457760505E+02  0.00000000000E+00 0. -1.
        -15    1    3    3    0    0  0.16286694367E+02 -0.23985457551E+02 -0.87653398214E+01  0.30340525680E+02  0.17770000000E+01 0.  1.
         15    1    3    3    0    0 -0.36237061492E+02  0.76550833448E+01 -0.14745621211E+03  0.15204675973E+03  0.17770000000E+01 0. -1.
</event>
<event>
 8    1  0.1798472E-005  0.1828726E+03  0.7546771E-02  0.1068159E+00
        -11   -1    0    0    0    0  0.00000000000E+00  0.00000000000E+00  0.18250000000E+03  0.18250000000E+03  0.00000000000E+00 0.  1.
         11   -1    0    0    0    0 -0.00000000000E+00 -0.00000000000E+00 -0.18250000000E+03  0.18250000000E+03  0.00000000000E+00 0. -1.
         23    2    1    2    0    0  0.18692141758E+02  0.11566735975E+02 -0.15649064478E+03  0.18287264079E+03  0.92032034100E+02 0.  0.
         23    2    1    2    0    0 -0.18692141758E+02 -0.11566735975E+02  0.15649064478E+03  0.18212735921E+03  0.90542076004E+02 0.  0.
        -11    1    4    4    0    0 -0.48168319359E+02 -0.24310778410E+02  0.12909290327E+03  0.13991489774E+03  0.00000000000E+00 0.  1.
         11    1    4    4    0    0  0.29476177601E+02  0.12744042435E+02  0.27397741509E+02  0.42212461470E+02  0.00000000000E+00 0. -1.
        -15    1    3    3    0    0 -0.35624807441E+02  0.12969007150E+02 -0.45258534693E+02  0.59066189510E+02  0.17770000000E+01 0.  1.
         15    1    3    3    0    0  0.54316949199E+02 -0.14022711754E+01 -0.11123211008E+03  0.12380645128E+03  0.17770000000E+01 0. -1.
</event>
<event>
 8    1  0.1798472E-005  0.1835834E+03  0.7546771E-02  0.1067596E+00
        -11   -1    0    0    0    0  0.00000000000E+00  0.00000000000E+00  0.18250000000E+03  0.18250000000E+03  0.00000000000E+00 0.  1.
         11   -1    0    0    0    0 -0.00000000000E+00 -0.00000000000E+00 -0.18250000000E+03  0.18250000000E+03  0.00000000000E+00 0. -1.
         23    2    1    2    0    0 -0.64244821639E+02  0.10156078432E+02 -0.14511104540E+03  0.18358335374E+03  0.91733795499E+02 0.  0.
         23    2    1    2    0    0  0.64244821639E+02 -0.10156078432E+02  0.14511104540E+03  0.18141664626E+03  0.87316899901E+02 0.  0.
        -11    1    4    4    0    0  0.77720965639E+02 -0.20251739254E+02  0.14356938872E+03  0.16450790504E+03  0.00000000000E+00 0.  1.
         11    1    4    4    0    0 -0.13476144000E+02  0.10095660823E+02  0.15416566808E+01  0.16908741227E+02  0.00000000000E+00 0. -1.
        -15    1    3    3    0    0 -0.21793053140E+02  0.34384416919E+02 -0.13098816447E+02  0.42801425366E+02  0.17770000000E+01 0.  1.
         15    1    3    3    0    0 -0.42451768499E+02 -0.24228338487E+02 -0.13201222895E+03  0.14078192837E+03  0.17770000000E+01 0. -1.
</event>
<event>
 8    1  0.1798472E-005  0.1854340E+03  0.7546771E-02  0.1066143E+00
        -11   -1    0    0    0    0  0.00000000000E+00  0.00000000000E+00  0.18250000000E+03  0.18250000000E+03  0.00000000000E+00 0. -1.
         11   -1    0    0    0    0 -0.00000000000E+00 -0.00000000000E+00 -0.18250000000E+03  0.18250000000E+03  0.00000000000E+00 0. -1.
         23    2    1    2    0    0  0.16608863647E+02  0.19690805103E+02 -0.15158772730E+03  0.17956604253E+03  0.92744500668E+02 0.  0.
         23    2    1    2    0    0 -0.16608863647E+02 -0.19690805103E+02  0.15158772730E+03  0.18543395747E+03  0.10365004273E+03 0.  0.
        -11    1    4    4    0    0  0.87644797002E-01 -0.60840471888E+02  0.71711326041E+02  0.94042995399E+02  0.00000000000E+00 0. -1.
         11    1    4    4    0    0 -0.16696508444E+02  0.41149666785E+02  0.79876401258E+02  0.91390962073E+02  0.00000000000E+00 0. -1.
        -15    1    3    3    0    0  0.26051649070E+01  0.13377516968E+02  0.10153122682E+02  0.17087670222E+02  0.17770000000E+01 0.  1.
         15    1    3    3    0    0  0.14003698740E+02  0.63132881349E+01 -0.16174084998E+03  0.16247837231E+03  0.17770000000E+01 0. -1.
</event>
<event>
 8    1  0.1798472E-005  0.1829041E+03  0.7546771E-02  0.1068134E+00
        -11   -1    0    0    0    0  0.00000000000E+00  0.00000000000E+00  0.18250000000E+03  0.18250000000E+03  0.00000000000E+00 0. -1.
         11   -1    0    0    0    0 -0.00000000000E+00 -0.00000000000E+00 -0.18250000000E+03  0.18250000000E+03  0.00000000000E+00 0.  1.
         23    2    1    2    0    0  0.70362067307E+02  0.72416178811E+02 -0.12116677530E+03  0.18209587150E+03  0.91008766124E+02 0.  0.
         23    2    1    2    0    0 -0.70362067307E+02 -0.72416178811E+02  0.12116677530E+03  0.18290412850E+03  0.92615383797E+02 0.  0.
        -11    1    4    4    0    0 -0.53699038713E+02 -0.20571570125E+02  0.89835042193E+01  0.58202058419E+02  0.00000000000E+00 0.  1.
         11    1    4    4    0    0 -0.16663028594E+02 -0.51844608686E+02  0.11218327108E+03  0.12470207008E+03  0.00000000000E+00 0. -1.
        -15    1    3    3    0    0  0.20803496467E+02  0.13600376062E+02 -0.98922601295E+02  0.10201271720E+03  0.17770000000E+01 0.  1.
         15    1    3    3    0    0  0.49558570840E+02  0.58815802749E+02 -0.22244174006E+02  0.80083154302E+02  0.17770000000E+01 0. -1.
</event>
<event>
 7    1  0.1798472E-005  0.1741725E+03  0.7546771E-02  0.1075284E+00
        -11   -1    0    0    0    0  0.00000000000E+00  0.00000000000E+00  0.18250000000E+03  0.18250000000E+03  0.00000000000E+00 0.  1.
         11   -1    0    0    0    0 -0.00000000000E+00 -0.00000000000E+00 -0.18250000000E+03  0.18250000000E+03  0.00000000000E+00 0.  1.
         23    2    1    2    0    0 -0.69474656260E+02 -0.10477128729E+03  0.56148670851E+02  0.17189749784E+03  0.10291902653E+03 0.  0.
        -11    1    1    2    0    0 -0.82838235560E+01 -0.18325284173E+02 -0.42310959203E+02  0.46847145499E+02  0.00000000000E+00 0.  1.
         11    1    1    2    0    0  0.77758479816E+02  0.12309657146E+03 -0.13837711649E+02  0.14625535666E+03  0.00000000000E+00 0.  1.
        -15    1    3    3    0    0 -0.41609723713E+02 -0.89063176343E+02  0.84099746642E+02  0.12938138816E+03  0.17770000000E+01 0.  1.
         15    1    3    3    0    0 -0.27864932547E+02 -0.15708110946E+02 -0.27951075791E+02  0.42516109679E+02  0.17770000000E+01 0. -1.
</event>
<event>
 8    1  0.1798472E-005  0.1828093E+03  0.7546771E-02  0.1068209E+00
        -11   -1    0    0    0    0  0.00000000000E+00  0.00000000000E+00  0.18250000000E+03  0.18250000000E+03  0.00000000000E+00 0.  1.
         11   -1    0    0    0    0 -0.00000000000E+00 -0.00000000000E+00 -0.18250000000E+03  0.18250000000E+03  0.00000000000E+00 0. -1.
         23    2    1    2    0    0  0.26796736601E+02  0.22476331712E+02 -0.15453065872E+03  0.18280928203E+03  0.91193522441E+02 0.  0.
         23    2    1    2    0    0 -0.26796736601E+02 -0.22476331712E+02  0.15453065872E+03  0.18219071797E+03  0.89947110294E+02 0.  0.
        -11    1    4    4    0    0 -0.13661393857E+02  0.15223126255E+01 -0.89720802027E+01  0.16414912154E+02  0.00000000000E+00 0. -1.
         11    1    4    4    0    0 -0.13135342744E+02 -0.23998644337E+02  0.16350273892E+03  0.16577580581E+03  0.00000000000E+00 0.  1.
        -15    1    3    3    0    0  0.39965299877E+02 -0.63893421242E-01 -0.18129425543E+02  0.43921100580E+02  0.17770000000E+01 0.  1.
         15    1    3    3    0    0 -0.13168563276E+02  0.22540225133E+02 -0.13640123317E+03  0.13888818145E+03  0.17770000000E+01 0. -1.
</event>
<event>
 8    1  0.1798472E-005  0.1845958E+03  0.7546771E-02  0.1066799E+00
        -11   -1    0    0    0    0  0.00000000000E+00  0.00000000000E+00  0.18250000000E+03  0.18250000000E+03  0.00000000000E+00 0.  1.
         11   -1    0    0    0    0 -0.00000000000E+00 -0.00000000000E+00 -0.18250000000E+03  0.18250000000E+03  0.00000000000E+00 0. -1.
         23    2    1    2    0    0 -0.67984137303E+02 -0.11410520625E+03  0.81826769369E+02  0.18459579462E+03  0.98682045929E+02 0.  0.
         23    2    1    2    0    0  0.67984137303E+02  0.11410520625E+03 -0.81826769369E+02  0.18040420538E+03  0.90599205920E+02 0.  0.
        -11    1    4    4    0    0  0.28344955823E+02  0.95443583701E+02 -0.15279113082E+02  0.10072916900E+03  0.00000000000E+00 0.  1.
         11    1    4    4    0    0  0.39639181480E+02  0.18661622551E+02 -0.66547656287E+02  0.79675036379E+02  0.00000000000E+00 0. -1.
        -15    1    3    3    0    0 -0.91126623551E+02 -0.94537864311E+02  0.49738846426E+02  0.14042286096E+03  0.17770000000E+01 0.  1.
         15    1    3    3    0    0  0.23142486248E+02 -0.19567341941E+02  0.32087922944E+02  0.44172933661E+02  0.17770000000E+01 0. -1.
</event>
<event>
 8    1  0.1798472E-005  0.1869318E+03  0.7546771E-02  0.1064981E+00
        -11   -1    0    0    0    0  0.00000000000E+00  0.00000000000E+00  0.18250000000E+03  0.18250000000E+03  0.00000000000E+00 0.  1.
         11   -1    0    0    0    0 -0.00000000000E+00 -0.00000000000E+00 -0.18250000000E+03  0.18250000000E+03  0.00000000000E+00 0. -1.
         23    2    1    2    0    0 -0.30252638123E+02  0.43217758272E+01 -0.15499625183E+03  0.18693179916E+03  0.99928772618E+02 0.  0.
         23    2    1    2    0    0  0.30252638123E+02 -0.43217758272E+01  0.15499625183E+03  0.17806820084E+03  0.82161707676E+02 0.  0.
        -11    1    4    4    0    0  0.16163080392E+02 -0.40197161451E+02  0.49664725114E+02  0.65906311360E+02  0.00000000000E+00 0.  1.
         11    1    4    4    0    0  0.14089557731E+02  0.35875385623E+02  0.10533152672E+03  0.11216188948E+03  0.00000000000E+00 0. -1.
        -15    1    3    3    0    0 -0.41048268979E+02 -0.14239276921E+02 -0.15915498547E+03  0.16498843754E+03  0.17770000000E+01 0. -1.
         15    1    3    3    0    0  0.10795630856E+02  0.18561052748E+02  0.41587336410E+01  0.21943361620E+02  0.17770000000E+01 0.  1.
</event>
<event>
 8    1  0.1798472E-005  0.1829428E+03  0.7546771E-02  0.1068103E+00
        -11   -1    0    0    0    0  0.00000000000E+00  0.00000000000E+00  0.18250000000E+03  0.18250000000E+03  0.00000000000E+00 0. -1.
         11   -1    0    0    0    0 -0.00000000000E+00 -0.00000000000E+00 -0.18250000000E+03  0.18250000000E+03  0.00000000000E+00 0.  1.
         23    2    1    2    0    0  0.14729508737E+02 -0.27708915232E+02 -0.15500887416E+03  0.18205715625E+03  0.90179347200E+02 0.  0.
         23    2    1    2    0    0 -0.14729508737E+02  0.27708915232E+02  0.15500887416E+03  0.18294284375E+03  0.91954285392E+02 0.  0.
        -11    1    4    4    0    0 -0.31775837287E+02  0.44972325227E+02  0.14765951647E+03  0.15759297787E+03  0.00000000000E+00 0. -1.
         11    1    4    4    0    0  0.17046328550E+02 -0.17263409995E+02  0.73493576915E+01  0.25349865881E+02  0.00000000000E+00 0.  1.
        -15    1    3    3    0    0  0.17725088236E+02  0.22674817027E+02 -0.11221523868E+03  0.11586088037E+03  0.17770000000E+01 0.  1.
         15    1    3    3    0    0 -0.29955794993E+01 -0.50383732259E+02 -0.42793635483E+02  0.66196275875E+02  0.17770000000E+01 0. -1.
</event>
<event>
 8    1  0.1798472E-005  0.1836097E+03  0.7546771E-02  0.1067575E+00
        -11   -1    0    0    0    0  0.00000000000E+00  0.00000000000E+00  0.18250000000E+03  0.18250000000E+03  0.00000000000E+00 0. -1.
         11   -1    0    0    0    0 -0.00000000000E+00 -0.00000000000E+00 -0.18250000000E+03  0.18250000000E+03  0.00000000000E+00 0.  1.
         23    2    1    2    0    0 -0.27793172557E+02  0.45145164023E+01 -0.15764685699E+03  0.18139028665E+03  0.85188398691E+02 0.  0.
         23    2    1    2    0    0  0.27793172557E+02 -0.45145164023E+01  0.15764685699E+03  0.18360971335E+03  0.89817336963E+02 0.  0.
        -11    1    4    4    0    0  0.29660345647E+01 -0.44715205683E+02  0.57710861914E+02  0.73067027880E+02  0.00000000000E+00 0.  1.
         11    1    4    4    0    0  0.24827137992E+02  0.40200689281E+02  0.99935995078E+02  0.11054268547E+03  0.00000000000E+00 0. -1.
        -15    1    3    3    0    0 -0.10493790166E+02 -0.38232538917E+02 -0.99725237268E+02  0.10733185613E+03  0.17770000000E+01 0.  1.
         15    1    3    3    0    0 -0.17299382390E+02  0.42747055320E+02 -0.57921619723E+02  0.74058430512E+02  0.17770000000E+01 0. -1.
</event>
<event>
 8    1  0.1798472E-005  0.1828978E+03  0.7546771E-02  0.1068139E+00
        -11   -1    0    0    0    0  0.00000000000E+00  0.00000000000E+00  0.18250000000E+03  0.18250000000E+03  0.00000000000E+00 0.  1.
         11   -1    0    0    0    0 -0.00000000000E+00 -0.00000000000E+00 -0.18250000000E+03  0.18250000000E+03  0.00000000000E+00 0. -1.
         23    2    1    2    0    0 -0.13285973506E+03 -0.75751705956E+02  0.42359666043E+02  0.18210216913E+03  0.89313092776E+02 0.  0.
         23    2    1    2    0    0  0.13285973506E+03  0.75751705956E+02 -0.42359666043E+02  0.18289783087E+03  0.90924392066E+02 0.  0.
        -11    1    4    4    0    0  0.11246963849E+02  0.19530329902E+02  0.24392513974E+02  0.33210280335E+02  0.00000000000E+00 0.  1.
         11    1    4    4    0    0  0.12161277121E+03  0.56221376054E+02 -0.66752180017E+02  0.14968755053E+03  0.00000000000E+00 0. -1.
        -15    1    3    3    0    0 -0.11248979386E+03 -0.96283939106E+02  0.33820075818E+02  0.15189307393E+03  0.17770000000E+01 0.  1.
         15    1    3    3    0    0 -0.20369941203E+02  0.20532233149E+02  0.85395902254E+01  0.30209095202E+02  0.17770000000E+01 0. -1.
</event>
<event>
 8    1  0.1798472E-005  0.1828616E+03  0.7546771E-02  0.1068167E+00
        -11   -1    0    0    0    0  0.00000000000E+00  0.00000000000E+00  0.18250000000E+03  0.18250000000E+03  0.00000000000E+00 0. -1.
         11   -1    0    0    0    0 -0.00000000000E+00 -0.00000000000E+00 -0.18250000000E+03  0.18250000000E+03  0.00000000000E+00 0. -1.
         23    2    1    2    0    0  0.64278456116E+02  0.78696309500E+02 -0.12055473663E+03  0.18286164971E+03  0.92628879739E+02 0.  0.
         23    2    1    2    0    0 -0.64278456116E+02 -0.78696309500E+02  0.12055473663E+03  0.18213835029E+03  0.91192681027E+02 0.  0.
        -11    1    4    4    0    0 -0.28525126665E+02  0.12065732569E+02  0.57765563585E+01  0.31506084445E+02  0.00000000000E+00 0. -1.
         11    1    4    4    0    0 -0.35753329451E+02 -0.90762042069E+02  0.11477818027E+03  0.15063226584E+03  0.00000000000E+00 0. -1.
        -15    1    3    3    0    0  0.30962644064E+02  0.65864702324E+02 -0.12714621524E+03  0.14651335134E+03  0.17770000000E+01 0. -1.
         15    1    3    3    0    0  0.33315812052E+02  0.12831607176E+02  0.65914786159E+01  0.36348298375E+02  0.17770000000E+01 0.  1.
</event>
<event>
 8    1  0.1798472E-005  0.1828092E+03  0.7546771E-02  0.1068209E+00
        -11   -1    0    0    0    0  0.00000000000E+00  0.00000000000E+00  0.18250000000E+03  0.18250000000E+03  0.00000000000E+00 0.  1.
         11   -1    0    0    0    0 -0.00000000000E+00 -0.00000000000E+00 -0.18250000000E+03  0.18250000000E+03  0.00000000000E+00 0. -1.
         23    2    1    2    0    0 -0.66753430660E+02  0.16455525509E+01  0.14391542812E+03  0.18219081860E+03  0.89571845933E+02 0.  0.
         23    2    1    2    0    0  0.66753430660E+02 -0.16455525509E+01 -0.14391542812E+03  0.18280918140E+03  0.90823003709E+02 0.  0.
        -11    1    4    4    0    0  0.65811099639E+00 -0.32993696000E+02 -0.76564724050E+02  0.83373701217E+02  0.00000000000E+00 0.  1.
         11    1    4    4    0    0  0.66095319664E+02  0.31348143449E+02 -0.67350704073E+02  0.99435480179E+02  0.00000000000E+00 0. -1.
        -15    1    3    3    0    0  0.20492671412E+02  0.11885511029E+02  0.27507961049E+02  0.36346397401E+02  0.17770000000E+01 0. -1.
         15    1    3    3    0    0 -0.87246102072E+02 -0.10239958478E+02  0.11640746707E+03  0.14584442120E+03  0.17770000000E+01 0.  1.
</event>
<event>
 8    1  0.1798472E-005  0.1831964E+03  0.7546771E-02  0.1067902E+00
        -11   -1    0    0    0    0  0.00000000000E+00  0.00000000000E+00  0.18250000000E+03  0.18250000000E+03  0.00000000000E+00 0.  1.
         11   -1    0    0    0    0 -0.00000000000E+00 -0.00000000000E+00 -0.18250000000E+03  0.18250000000E+03  0.00000000000E+00 0. -1.
         23    2    1    2    0    0 -0.93399335582E+02 -0.13961440224E+02 -0.12583216554E+03  0.18319638497E+03  0.93855334868E+02 0.  0.
         23    2    1    2    0    0  0.93399335582E+02  0.13961440224E+02  0.12583216554E+03  0.18180361503E+03  0.91106875986E+02 0.  0.
        -11    1    4    4    0    0  0.55698207121E+02 -0.19462403213E+02  0.16256138874E+02  0.61199162302E+02  0.00000000000E+00 0. -1.
         11    1    4    4    0    0  0.37701128461E+02  0.33423843436E+02  0.10957602666E+03  0.12060445272E+03  0.00000000000E+00 0.  1.
        -15    1    3    3    0    0 -0.77053406815E+01 -0.31262717476E+02 -0.29545007646E+01  0.32382349865E+02  0.17770000000E+01 0.  1.
         15    1    3    3    0    0 -0.85693994901E+02  0.17301277253E+02 -0.12287766477E+03  0.15081403511E+03  0.17770000000E+01 0. -1.
</event>
<event>
 8    1  0.1798472E-005  0.1826976E+03  0.7546771E-02  0.1068298E+00
        -11   -1    0    0    0    0  0.00000000000E+00  0.00000000000E+00  0.18250000000E+03  0.18250000000E+03  0.00000000000E+00 0.  1.
         11   -1    0    0    0    0 -0.00000000000E+00 -0.00000000000E+00 -0.18250000000E+03  0.18250000000E+03  0.00000000000E+00 0. -1.
         23    2    1    2    0    0 -0.15125236561E+03  0.35298045766E+02 -0.33202905817E+02  0.18269755818E+03  0.90292495112E+02 0.  0.
         23    2    1    2    0    0  0.15125236561E+03 -0.35298045766E+02  0.33202905817E+02  0.18230244182E+03  0.89490319023E+02 0.  0.
        -11    1    4    4    0    0  0.10017138231E+03  0.81517867907E+00  0.57135681141E+02  0.11532326916E+03  0.00000000000E+00 0.  1.
         11    1    4    4    0    0  0.51080983307E+02 -0.36113224445E+02 -0.23932775324E+02  0.66979172660E+02  0.00000000000E+00 0. -1.
        -15    1    3    3    0    0 -0.27450837143E+02 -0.23386632771E+02  0.12577624835E+02  0.38233982629E+02  0.17770000000E+01 0.  1.
         15    1    3    3    0    0 -0.12380152847E+03  0.58684678537E+02 -0.45780530652E+02  0.14446357556E+03  0.17770000000E+01 0. -1.
</event>
<event>
 8    1  0.1798472E-005  0.1837769E+03  0.7546771E-02  0.1067443E+00
        -11   -1    0    0    0    0  0.00000000000E+00  0.00000000000E+00  0.18250000000E+03  0.18250000000E+03  0.00000000000E+00 0. -1.
         11   -1    0    0    0    0 -0.00000000000E+00 -0.00000000000E+00 -0.18250000000E+03  0.18250000000E+03  0.00000000000E+00 0.  1.
         23    2    1    2    0    0 -0.54761015962E+02 -0.28745605222E+02  0.14630214450E+03  0.18122305328E+03  0.87249062272E+02 0.  0.
         23    2    1    2    0    0  0.54761015962E+02  0.28745605222E+02 -0.14630214450E+03  0.18377694672E+03  0.92436843156E+02 0.  0.
        -11    1    4    4    0    0  0.33967232613E+02 -0.16265909126E+02 -0.12366286741E+03  0.12927048181E+03  0.00000000000E+00 0.  1.
         11    1    4    4    0    0  0.20793783350E+02  0.45011514347E+02 -0.22639277082E+02  0.54506464907E+02  0.00000000000E+00 0. -1.
        -15    1    3    3    0    0 -0.94664123232E+01  0.25890942956E+02  0.77844615477E+02  0.82600821892E+02  0.17770000000E+01 0.  1.
         15    1    3    3    0    0 -0.45294603639E+02 -0.54636548178E+02  0.68457529019E+02  0.98622231388E+02  0.17770000000E+01 0. -1.
</event>
<event>
 8    1  0.1798472E-005  0.1829786E+03  0.7546771E-02  0.1068075E+00
        -11   -1    0    0    0    0  0.00000000000E+00  0.00000000000E+00  0.18250000000E+03  0.18250000000E+03  0.00000000000E+00 0. -1.
         11   -1    0    0    0    0 -0.00000000000E+00 -0.00000000000E+00 -0.18250000000E+03  0.18250000000E+03  0.00000000000E+00 0.  1.
         23    2    1    2    0    0  0.18318645024E+02  0.14872144321E+03 -0.50044944546E+02  0.18202142730E+03  0.90408313199E+02 0.  0.
         23    2    1    2    0    0 -0.18318645024E+02 -0.14872144321E+03  0.50044944546E+02  0.18297857270E+03  0.92320209966E+02 0.  0.
        -11    1    4    4    0    0  0.37473871940E+02 -0.70141057265E+02  0.25778355499E+02  0.83597742820E+02  0.00000000000E+00 0. -1.
         11    1    4    4    0    0 -0.55792516963E+02 -0.78580385943E+02  0.24266589047E+02  0.99380829882E+02  0.00000000000E+00 0.  1.
        -15    1    3    3    0    0 -0.24879309022E+01  0.12915927115E+03 -0.70186745631E+02  0.14702939882E+03  0.17770000000E+01 0.  1.
         15    1    3    3    0    0  0.20806575926E+02  0.19562172055E+02  0.20141801085E+02  0.34992028481E+02  0.17770000000E+01 0. -1.
</event>
<event>
 8    1  0.1798472E-005  0.1826003E+03  0.7546771E-02  0.1068375E+00
        -11   -1    0    0    0    0  0.00000000000E+00  0.00000000000E+00  0.18250000000E+03  0.18250000000E+03  0.00000000000E+00 0.  1.
         11   -1    0    0    0    0 -0.00000000000E+00 -0.00000000000E+00 -0.18250000000E+03  0.18250000000E+03  0.00000000000E+00 0. -1.
         23    2    1    2    0    0  0.88196185928E+01  0.20988413275E+02 -0.15634531039E+03  0.18239968217E+03  0.91145426712E+02 0.  0.
         23    2    1    2    0    0 -0.88196185928E+01 -0.20988413275E+02  0.15634531039E+03  0.18260031783E+03  0.91546276980E+02 0.  0.
        -11    1    4    4    0    0 -0.38335543261E+02 -0.13241762099E+02  0.24750355569E+02  0.47513558501E+02  0.00000000000E+00 0. -1.
         11    1    4    4    0    0  0.29515924668E+02 -0.77466511759E+01  0.13159495482E+03  0.13508675933E+03  0.00000000000E+00 0.  1.
        -15    1    3    3    0    0 -0.61122267457E+01 -0.37082676760E+01  0.10633465647E+02  0.12935953216E+02  0.17770000000E+01 0.  1.
         15    1    3    3    0    0  0.14931845338E+02  0.24696680951E+02 -0.16697877603E+03  0.16946372895E+03  0.17770000000E+01 0. -1.
</event>
<event>
 8    1  0.1798472E-005  0.1826160E+03  0.7546771E-02  0.1068363E+00
        -11   -1    0    0    0    0  0.00000000000E+00  0.00000000000E+00  0.18250000000E+03  0.18250000000E+03  0.00000000000E+00 0. -1.
         11   -1    0    0    0    0 -0.00000000000E+00 -0.00000000000E+00 -0.18250000000E+03  0.18250000000E+03  0.00000000000E+00 0.  1.
         23    2    1    2    0    0 -0.51652250312E+02 -0.30211338684E+02 -0.14634561193E+03  0.18261596194E+03  0.91383102792E+02 0.  0.
         23    2    1    2    0    0  0.51652250312E+02  0.30211338684E+02  0.14634561193E+03  0.18238403806E+03  0.90918750888E+02 0.  0.
        -11    1    4    4    0    0 -0.35794982336E+01  0.37630852428E+02  0.16810605025E+02  0.41370161993E+02  0.00000000000E+00 0.  1.
         11    1    4    4    0    0  0.55231748545E+02 -0.74195137432E+01  0.12953500690E+03  0.14101387607E+03  0.00000000000E+00 0. -1.
        -15    1    3    3    0    0  0.16298558778E+02 -0.98967936201E+01 -0.90008802551E+02  0.92023539422E+02  0.17770000000E+01 0. -1.
         15    1    3    3    0    0 -0.67950809089E+02 -0.20314545064E+02 -0.56336809377E+02  0.90592422513E+02  0.17770000000E+01 0.  1.
</event>
<event>
 8    1  0.1798472E-005  0.1826746E+03  0.7546771E-02  0.1068316E+00
        -11   -1    0    0    0    0  0.00000000000E+00  0.00000000000E+00  0.18250000000E+03  0.18250000000E+03  0.00000000000E+00 0.  1.
         11   -1    0    0    0    0 -0.00000000000E+00 -0.00000000000E+00 -0.18250000000E+03  0.18250000000E+03  0.00000000000E+00 0. -1.
         23    2    1    2    0    0  0.65762697998E+02  0.56914948003E+02 -0.13238320290E+03  0.18267457794E+03  0.90998050865E+02 0.  0.
         23    2    1    2    0    0 -0.65762697998E+02 -0.56914948003E+02  0.13238320290E+03  0.18232542206E+03  0.90295090497E+02 0.  0.
        -11    1    4    4    0    0 -0.59204857561E+02 -0.76029288218E+02  0.13022761845E+03  0.16200277909E+03  0.00000000000E+00 0.  1.
         11    1    4    4    0    0 -0.65578404373E+01  0.19114340215E+02  0.21555844417E+01  0.20322642971E+02  0.00000000000E+00 0. -1.
        -15    1    3    3    0    0  0.15470465093E+02 -0.86986081003E+01  0.81563061969E+01  0.19613366179E+02  0.17770000000E+01 0.  1.
         15    1    3    3    0    0  0.50292232905E+02  0.65613556103E+02 -0.14053950909E+03  0.16306121176E+03  0.17770000000E+01 0. -1.
</event>
<event>
 8    1  0.1798472E-005  0.1846452E+03  0.7546771E-02  0.1066760E+00
        -11   -1    0    0    0    0  0.00000000000E+00  0.00000000000E+00  0.18250000000E+03  0.18250000000E+03  0.00000000000E+00 0.  1.
         11   -1    0    0    0    0 -0.00000000000E+00 -0.00000000000E+00 -0.18250000000E+03  0.18250000000E+03  0.00000000000E+00 0. -1.
         23    2    1    2    0    0 -0.13255380866E+03  0.69542753432E+02 -0.46409493110E+02  0.18035477362E+03  0.89259714155E+02 0.  0.
         23    2    1    2    0    0  0.13255380866E+03 -0.69542753432E+02  0.46409493110E+02  0.18464522638E+03  0.97638679994E+02 0.  0.
        -11    1    4    4    0    0  0.35312123959E+02 -0.31676076423E+02 -0.29266853889E+02  0.55739291820E+02  0.00000000000E+00 0. -1.
         11    1    4    4    0    0  0.97241684698E+02 -0.37866677010E+02  0.75676346999E+02  0.12890593456E+03  0.00000000000E+00 0.  1.
        -15    1    3    3    0    0 -0.12248693068E+03  0.52614835924E+02 -0.37945582220E+01  0.13337513092E+03  0.17770000000E+01 0. -1.
         15    1    3    3    0    0 -0.10066877977E+02  0.16927917509E+02 -0.42614934888E+02  0.46979642697E+02  0.17770000000E+01 0.  1.
</event>
<event>
 8    1  0.1798472E-005  0.1863894E+03  0.7546771E-02  0.1065400E+00
        -11   -1    0    0    0    0  0.00000000000E+00  0.00000000000E+00  0.18250000000E+03  0.18250000000E+03  0.00000000000E+00 0. -1.
         11   -1    0    0    0    0 -0.00000000000E+00 -0.00000000000E+00 -0.18250000000E+03  0.18250000000E+03  0.00000000000E+00 0. -1.
         23    2    1    2    0    0 -0.18777033079E+00  0.19299783804E+02 -0.15238588613E+03  0.17861057868E+03  0.91146934198E+02 0.  0.
         23    2    1    2    0    0  0.18777033079E+00 -0.19299783804E+02  0.15238588613E+03  0.18638942132E+03  0.10557954905E+03 0.  0.
        -11    1    4    4    0    0  0.50746896561E+02  0.45942156339E+01  0.81234437462E+02  0.95892586563E+02  0.00000000000E+00 0. -1.
         11    1    4    4    0    0 -0.50559126230E+02 -0.23893999437E+02  0.71151448663E+02  0.90496834757E+02  0.00000000000E+00 0. -1.
        -15    1    3    3    0    0  0.27956650498E+02 -0.26962627620E+02 -0.59470920786E+02  0.71052837687E+02  0.17770000000E+01 0.  1.
         15    1    3    3    0    0 -0.28144420829E+02  0.46262411423E+02 -0.92914965339E+02  0.10755774099E+03  0.17770000000E+01 0. -1.
</event>
<event>
 8    1  0.1798472E-005  0.1833772E+03  0.7546771E-02  0.1067759E+00
        -11   -1    0    0    0    0  0.00000000000E+00  0.00000000000E+00  0.18250000000E+03  0.18250000000E+03  0.00000000000E+00 0. -1.
         11   -1    0    0    0    0 -0.00000000000E+00 -0.00000000000E+00 -0.18250000000E+03  0.18250000000E+03  0.00000000000E+00 0.  1.
         23    2    1    2    0    0  0.14412837770E+02 -0.65873915586E+01 -0.15892483455E+03  0.18162282711E+03  0.86479041811E+02 0.  0.
         23    2    1    2    0    0 -0.14412837770E+02  0.65873915586E+01  0.15892483455E+03  0.18337717289E+03  0.90105276652E+02 0.  0.
        -11    1    4    4    0    0 -0.17455974250E+01 -0.31516968861E+02  0.13028777862E+03  0.13405697182E+03  0.00000000000E+00 0. -1.
         11    1    4    4    0    0 -0.12667240345E+02  0.38104360419E+02  0.28637055926E+02  0.49320201064E+02  0.00000000000E+00 0.  1.
        -15    1    3    3    0    0  0.65845359748E+01  0.13630928970E+02 -0.15913988652E+03  0.15986813175E+03  0.17770000000E+01 0.  1.
         15    1    3    3    0    0  0.78283017953E+01 -0.20218320528E+02  0.21505197309E+00  0.21754695363E+02  0.17770000000E+01 0. -1.
</event>
<event>
 8    1  0.1798472E-005  0.1826432E+03  0.7546771E-02  0.1068341E+00
        -11   -1    0    0    0    0  0.00000000000E+00  0.00000000000E+00  0.18250000000E+03  0.18250000000E+03  0.00000000000E+00 0.  1.
         11   -1    0    0    0    0 -0.00000000000E+00 -0.00000000000E+00 -0.18250000000E+03  0.18250000000E+03  0.00000000000E+00 0. -1.
         23    2    1    2    0    0 -0.11864530488E+02 -0.15844278739E+02 -0.15664024804E+03  0.18264322656E+03  0.91818149897E+02 0.  0.
         23    2    1    2    0    0  0.11864530488E+02  0.15844278739E+02  0.15664024804E+03  0.18235677344E+03  0.91247012329E+02 0.  0.
        -11    1    4    4    0    0  0.55264011060E+01  0.18861818634E+02  0.16792254750E+03  0.16906889504E+03  0.00000000000E+00 0.  1.
         11    1    4    4    0    0  0.63381293822E+01 -0.30175398943E+01 -0.11282299461E+02  0.13287878393E+02  0.00000000000E+00 0. -1.
        -15    1    3    3    0    0 -0.16173901993E+02  0.14871453863E+02  0.90694763079E+00  0.22062083507E+02  0.17770000000E+01 0.  1.
         15    1    3    3    0    0  0.43093715049E+01 -0.30715732602E+02 -0.15754719567E+03  0.16058114306E+03  0.17770000000E+01 0. -1.
</event>
<event>
 8    1  0.1798472E-005  0.1899161E+03  0.7546771E-02  0.1062700E+00
        -11   -1    0    0    0    0  0.00000000000E+00  0.00000000000E+00  0.18250000000E+03  0.18250000000E+03  0.00000000000E+00 0.  1.
         11   -1    0    0    0    0 -0.00000000000E+00 -0.00000000000E+00 -0.18250000000E+03  0.18250000000E+03  0.00000000000E+00 0.  1.
         23    2    1    2    0    0  0.35946153403E+02 -0.54127479638E+02 -0.14824436713E+03  0.18991610215E+03  0.99346985221E+02 0.  0.
         23    2    1    2    0    0 -0.35946153403E+02  0.54127479638E+02  0.14824436713E+03  0.17508389785E+03  0.66753793173E+02 0.  0.
        -11    1    4    4    0    0 -0.42686299749E+02  0.45171661075E+02  0.15121449806E+03  0.16348829797E+03  0.00000000000E+00 0.  1.
         11    1    4    4    0    0  0.67401463465E+01  0.89558185628E+01 -0.29701309221E+01  0.11595599881E+02  0.00000000000E+00 0.  1.
        -15    1    3    3    0    0  0.35932509623E+02  0.22174270236E+02 -0.48702163458E+02  0.64481795592E+02  0.17770000000E+01 0. -1.
         15    1    3    3    0    0  0.13643779981E-01 -0.76301749874E+02 -0.99542203676E+02  0.12543430656E+03  0.17770000000E+01 0.  1.
</event>
<event>
 8    1  0.1798472E-005  0.1844974E+03  0.7546771E-02  0.1066876E+00
        -11   -1    0    0    0    0  0.00000000000E+00  0.00000000000E+00  0.18250000000E+03  0.18250000000E+03  0.00000000000E+00 0.  1.
         11   -1    0    0    0    0 -0.00000000000E+00 -0.00000000000E+00 -0.18250000000E+03  0.18250000000E+03  0.00000000000E+00 0. -1.
         23    2    1    2    0    0  0.76699833304E+02 -0.12242518450E+03  0.57926799094E+02  0.18449738742E+03  0.99060495077E+02 0.  0.
         23    2    1    2    0    0 -0.76699833304E+02  0.12242518450E+03 -0.57926799094E+02  0.18050261258E+03  0.91405081182E+02 0.  0.
        -11    1    4    4    0    0  0.57093121027E+01 -0.78090220155E+01 -0.19345527410E+02  0.21629297268E+02  0.00000000000E+00 0. -1.
         11    1    4    4    0    0 -0.82409145407E+02  0.13023420651E+03 -0.38581271684E+02  0.15887331531E+03  0.00000000000E+00 0.  1.
        -15    1    3    3    0    0  0.88027581391E+02 -0.49734724740E+02  0.26926765439E+02  0.10464514493E+03  0.17770000000E+01 0.  1.
         15    1    3    3    0    0 -0.11327748087E+02 -0.72690459756E+02  0.31000033655E+02  0.79852242498E+02  0.17770000000E+01 0. -1.
</event>
<event>
 8    1  0.1798472E-005  0.1837210E+03  0.7546771E-02  0.1067487E+00
        -11   -1    0    0    0    0  0.00000000000E+00  0.00000000000E+00  0.18250000000E+03  0.18250000000E+03  0.00000000000E+00 0.  1.
         11   -1    0    0    0    0 -0.00000000000E+00 -0.00000000000E+00 -0.18250000000E+03  0.18250000000E+03  0.00000000000E+00 0. -1.
         23    2    1    2    0    0  0.92721836271E+02  0.25201484672E+02 -0.12572368311E+03  0.18127901662E+03  0.88448762691E+02 0.  0.
         23    2    1    2    0    0 -0.92721836271E+02 -0.25201484672E+02  0.12572368311E+03  0.18372098338E+03  0.93351494290E+02 0.  0.
        -11    1    4    4    0    0 -0.52543886446E+02  0.22104372944E+02  0.10281982119E+03  0.11756436082E+03  0.00000000000E+00 0.  1.
         11    1    4    4    0    0 -0.40177949824E+02 -0.47305857616E+02  0.22903861926E+02  0.66156622556E+02  0.00000000000E+00 0. -1.
        -15    1    3    3    0    0 -0.20621454112E+01  0.33892117828E+02 -0.45404504167E+02  0.56724375909E+02  0.17770000000E+01 0.  1.
         15    1    3    3    0    0  0.94783981682E+02 -0.86906331561E+01 -0.80319178946E+02  0.12455464072E+03  0.17770000000E+01 0. -1.
</event>
<event>
 7    1  0.1798472E-005  0.1593084E+03  0.7546771E-02  0.1088578E+00
        -11   -1    0    0    0    0  0.00000000000E+00  0.00000000000E+00  0.18250000000E+03  0.18250000000E+03  0.00000000000E+00 0.  1.
         11   -1    0    0    0    0 -0.00000000000E+00 -0.00000000000E+00 -0.18250000000E+03  0.18250000000E+03  0.00000000000E+00 0.  1.
         23    2    1    2    0    0  0.18120743818E+02 -0.74160308275E+01 -0.13972540821E+03  0.16798345074E+03  0.91169573617E+02 0.  0.
        -11    1    1    2    0    0 -0.66589948889E+02 -0.26891223866E+02  0.10798240737E+03  0.12968253358E+03  0.00000000000E+00 0.  1.
         11    1    1    2    0    0  0.48469205071E+02  0.34307254693E+02  0.31743000845E+02  0.67334015679E+02  0.00000000000E+00 0.  1.
        -15    1    3    3    0    0  0.37746601734E+02  0.47742112885E+01 -0.13971272562E+03  0.14481161025E+03  0.17770000000E+01 0.  1.
         15    1    3    3    0    0 -0.19625857916E+02 -0.12190242116E+02 -0.12682594864E-01  0.23171840489E+02  0.17770000000E+01 0. -1.
</event>
<event>
 8    1  0.1798472E-005  0.1838611E+03  0.7546771E-02  0.1067376E+00
        -11   -1    0    0    0    0  0.00000000000E+00  0.00000000000E+00  0.18250000000E+03  0.18250000000E+03  0.00000000000E+00 0.  1.
         11   -1    0    0    0    0 -0.00000000000E+00 -0.00000000000E+00 -0.18250000000E+03  0.18250000000E+03  0.00000000000E+00 0. -1.
         23    2    1    2    0    0 -0.17312661660E+02 -0.39382382723E+01 -0.15791733946E+03  0.18386112496E+03  0.92475884397E+02 0.  0.
         23    2    1    2    0    0  0.17312661660E+02  0.39382382723E+01  0.15791733946E+03  0.18113887504E+03  0.86937724697E+02 0.  0.
        -11    1    4    4    0    0 -0.33497207703E+02  0.12311224027E+02  0.81718479612E+02  0.89171402765E+02  0.00000000000E+00 0. -1.
         11    1    4    4    0    0  0.50809869364E+02 -0.83729857544E+01  0.76198859845E+02  0.91967472276E+02  0.00000000000E+00 0.  1.
        -15    1    3    3    0    0  0.52455977646E+01  0.42075557867E+02 -0.80516870974E+02  0.91016444153E+02  0.17770000000E+01 0. -1.
         15    1    3    3    0    0 -0.22558259425E+02 -0.46013796139E+02 -0.77400468484E+02  0.92844680806E+02  0.17770000000E+01 0.  1.
</event>
<event>
 8    1  0.1798472E-005  0.1830967E+03  0.7546771E-02  0.1067981E+00
        -11   -1    0    0    0    0  0.00000000000E+00  0.00000000000E+00  0.18250000000E+03  0.18250000000E+03  0.00000000000E+00 0. -1.
         11   -1    0    0    0    0 -0.00000000000E+00 -0.00000000000E+00 -0.18250000000E+03  0.18250000000E+03  0.00000000000E+00 0.  1.
         23    2    1    2    0    0 -0.31247272244E+02 -0.70695058508E+02 -0.13852228077E+03  0.18190334652E+03  0.89029331603E+02 0.  0.
         23    2    1    2    0    0  0.31247272244E+02  0.70695058508E+02  0.13852228077E+03  0.18309665348E+03  0.91442763095E+02 0.  0.
        -11    1    4    4    0    0  0.26966886201E+02  0.48439729270E+02  0.14836754009E+03  0.15838733306E+03  0.00000000000E+00 0. -1.
         11    1    4    4    0    0  0.42803860430E+01  0.22255329238E+02 -0.98452593145E+01  0.24709320410E+02  0.00000000000E+00 0.  1.
        -15    1    3    3    0    0 -0.17832449252E+02  0.15310729947E+02 -0.60747042500E+02  0.65159616322E+02  0.17770000000E+01 0. -1.
         15    1    3    3    0    0 -0.13414822992E+02 -0.86005788456E+02 -0.77775238275E+02  0.11674373020E+03  0.17770000000E+01 0.  1.
</event>
<event>
 8    1  0.1798472E-005  0.1830348E+03  0.7546771E-02  0.1068030E+00
        -11   -1    0    0    0    0  0.00000000000E+00  0.00000000000E+00  0.18250000000E+03  0.18250000000E+03  0.00000000000E+00 0.  1.
         11   -1    0    0    0    0 -0.00000000000E+00 -0.00000000000E+00 -0.18250000000E+03  0.18250000000E+03  0.00000000000E+00 0. -1.
         23    2    1    2    0    0  0.21798962054E+02  0.14098866570E+03 -0.67949845470E+02  0.18303477201E+03  0.92366377328E+02 0.  0.
         23    2    1    2    0    0 -0.21798962054E+02 -0.14098866570E+03  0.67949845470E+02  0.18196522799E+03  0.90228399612E+02 0.  0.
        -11    1    4    4    0    0 -0.27328757988E+02 -0.13056502326E+03  0.22837533930E+02  0.13533528464E+03  0.00000000000E+00 0.  1.
         11    1    4    4    0    0  0.55297959332E+01 -0.10423642440E+02  0.45112311540E+02  0.46629943355E+02  0.00000000000E+00 0. -1.
        -15    1    3    3    0    0 -0.27693177117E+02  0.30868560138E+02  0.52443178715E+01  0.41838267922E+02  0.17770000000E+01 0.  1.
         15    1    3    3    0    0  0.49492139171E+02  0.11012010556E+03 -0.73194163342E+02  0.14119650408E+03  0.17770000000E+01 0. -1.
</event>
<event>
 8    1  0.1798472E-005  0.1830081E+03  0.7546771E-02  0.1068051E+00
        -11   -1    0    0    0    0  0.00000000000E+00  0.00000000000E+00  0.18250000000E+03  0.18250000000E+03  0.00000000000E+00 0.  1.
         11   -1    0    0    0    0 -0.00000000000E+00 -0.00000000000E+00 -0.18250000000E+03  0.18250000000E+03  0.00000000000E+00 0. -1.
         23    2    1    2    0    0  0.27742768621E+02  0.99341923689E+02  0.11920925316E+03  0.18300814240E+03  0.92965881567E+02 0.  0.
         23    2    1    2    0    0 -0.27742768621E+02 -0.99341923689E+02 -0.11920925316E+03  0.18199185760E+03  0.90948948208E+02 0.  0.
        -11    1    4    4    0    0 -0.48584076303E+02 -0.99587308946E+02 -0.11682052519E+03  0.16101266931E+03  0.00000000000E+00 0. -1.
         11    1    4    4    0    0  0.20841307682E+02  0.24538525767E+00 -0.23887279691E+01  0.20979188286E+02  0.00000000000E+00 0.  1.
        -15    1    3    3    0    0  0.60480006352E+02  0.79743410379E+02  0.93417726334E+02  0.13691921702E+03  0.17770000000E+01 0.  1.
         15    1    3    3    0    0 -0.32737237731E+02  0.19598513310E+02  0.25791526822E+02  0.46088925384E+02  0.17770000000E+01 0. -1.
</event>
<event>
 8    1  0.1798472E-005  0.1827146E+03  0.7546771E-02  0.1068284E+00
        -11   -1    0    0    0    0  0.00000000000E+00  0.00000000000E+00  0.18250000000E+03  0.18250000000E+03  0.00000000000E+00 0.  1.
         11   -1    0    0    0    0 -0.00000000000E+00 -0.00000000000E+00 -0.18250000000E+03  0.18250000000E+03  0.00000000000E+00 0. -1.
         23    2    1    2    0    0 -0.73684580594E+02 -0.21592856366E+02 -0.13756566240E+03  0.18271459783E+03  0.92545361447E+02 0.  0.
         23    2    1    2    0    0  0.73684580594E+02  0.21592856366E+02  0.13756566240E+03  0.18228540217E+03  0.91695078990E+02 0.  0.
        -11    1    4    4    0    0  0.90652730061E+02  0.35165537709E+01  0.12510799845E+03  0.15453897532E+03  0.00000000000E+00 0.  1.
         11    1    4    4    0    0 -0.16968149467E+02  0.18076302595E+02  0.12457663946E+02  0.27746426848E+02  0.00000000000E+00 0. -1.
        -15    1    3    3    0    0 -0.36887183737E+02 -0.22571232376E+02 -0.32145785689E+01  0.43400646302E+02  0.17770000000E+01 0.  1.
         15    1    3    3    0    0 -0.36797396856E+02  0.97837601003E+00 -0.13435108383E+03  0.13931395153E+03  0.17770000000E+01 0. -1.
</event>
<event>
 8    1  0.1798472E-005  0.1839933E+03  0.7546771E-02  0.1067272E+00
        -11   -1    0    0    0    0  0.00000000000E+00  0.00000000000E+00  0.18250000000E+03  0.18250000000E+03  0.00000000000E+00 0.  1.
         11   -1    0    0    0    0 -0.00000000000E+00 -0.00000000000E+00 -0.18250000000E+03  0.18250000000E+03  0.00000000000E+00 0. -1.
         23    2    1    2    0    0 -0.17552983077E+02  0.61012226581E+00 -0.15682406853E+03  0.18399329822E+03  0.94611129653E+02 0.  0.
         23    2    1    2    0    0  0.17552983077E+02 -0.61012226581E+00  0.15682406853E+03  0.18100670178E+03  0.88663172478E+02 0.  0.
        -11    1    4    4    0    0  0.30509198711E+02 -0.12411932562E+02  0.15986190392E+03  0.16321977699E+03  0.00000000000E+00 0.  1.
         11    1    4    4    0    0 -0.12956215634E+02  0.11801810296E+02 -0.30378353821E+01  0.17786924794E+02  0.00000000000E+00 0. -1.
        -15    1    3    3    0    0 -0.31589616579E+02 -0.34915426980E+02 -0.12712271711E+03  0.13557408989E+03  0.17770000000E+01 0. -1.
         15    1    3    3    0    0  0.14036633503E+02  0.35525549246E+02 -0.29701351427E+02  0.48419208326E+02  0.17770000000E+01 0.  1.
</event>
<event>
 8    1  0.1798472E-005  0.1843991E+03  0.7546771E-02  0.1066953E+00
        -11   -1    0    0    0    0  0.00000000000E+00  0.00000000000E+00  0.18250000000E+03  0.18250000000E+03  0.00000000000E+00 0. -1.
         11   -1    0    0    0    0 -0.00000000000E+00 -0.00000000000E+00 -0.18250000000E+03  0.18250000000E+03  0.00000000000E+00 0.  1.
         23    2    1    2    0    0 -0.13697006927E+03 -0.79209688129E+02 -0.21427509938E+02  0.18060093500E+03  0.84395408483E+02 0.  0.
         23    2    1    2    0    0  0.13697006927E+03  0.79209688129E+02  0.21427509938E+02  0.18439906500E+03  0.92243712096E+02 0.  0.
        -11    1    4    4    0    0  0.82778131908E+01  0.33582136816E+02  0.32432736708E+02  0.47414813242E+02  0.00000000000E+00 0. -1.
         11    1    4    4    0    0  0.12869225608E+03  0.45627551312E+02 -0.11005226770E+02  0.13698425176E+03  0.00000000000E+00 0.  1.
        -15    1    3    3    0    0 -0.11859643157E+03 -0.96100606251E+02 -0.96865755479E+01  0.15296217695E+03  0.17770000000E+01 0.  1.
         15    1    3    3    0    0 -0.18373637702E+02  0.16890918122E+02 -0.11740934390E+02  0.27638758054E+02  0.17770000000E+01 0. -1.
</event>
<event>
 8    1  0.1798472E-005  0.1826528E+03  0.7546771E-02  0.1068333E+00
        -11   -1    0    0    0    0  0.00000000000E+00  0.00000000000E+00  0.18250000000E+03  0.18250000000E+03  0.00000000000E+00 0.  1.
         11   -1    0    0    0    0 -0.00000000000E+00 -0.00000000000E+00 -0.18250000000E+03  0.18250000000E+03  0.00000000000E+00 0. -1.
         23    2    1    2    0    0 -0.60157538944E+02  0.54352992117E+02 -0.13582093425E+03  0.18265277731E+03  0.91331996788E+02 0.  0.
         23    2    1    2    0    0  0.60157538944E+02 -0.54352992117E+02  0.13582093425E+03  0.18234722269E+03  0.90719381599E+02 0.  0.
        -11    1    4    4    0    0  0.26975118753E+02 -0.60055934743E+02  0.13319320089E+03  0.14857591020E+03  0.00000000000E+00 0.  1.
         11    1    4    4    0    0  0.33182420191E+02  0.57029426259E+01  0.26277333599E+01  0.33771312485E+02  0.00000000000E+00 0. -1.
        -15    1    3    3    0    0 -0.61786177771E+02  0.70496631928E+02 -0.13730568034E+03  0.16626278736E+03  0.17770000000E+01 0. -1.
         15    1    3    3    0    0  0.16286388269E+01 -0.16143639810E+02  0.14847460982E+01  0.16389989955E+02  0.17770000000E+01 0.  1.
</event>
<event>
 8    1  0.1798472E-005  0.1826491E+03  0.7546771E-02  0.1068336E+00
        -11   -1    0    0    0    0  0.00000000000E+00  0.00000000000E+00  0.18250000000E+03  0.18250000000E+03  0.00000000000E+00 0.  1.
         11   -1    0    0    0    0 -0.00000000000E+00 -0.00000000000E+00 -0.18250000000E+03  0.18250000000E+03  0.00000000000E+00 0. -1.
         23    2    1    2    0    0 -0.35016630411E+02  0.82603648224E+02 -0.13019803460E+03  0.18235088570E+03  0.90833860407E+02 0.  0.
         23    2    1    2    0    0  0.35016630411E+02 -0.82603648224E+02  0.13019803460E+03  0.18264911430E+03  0.91431086812E+02 0.  0.
        -11    1    4    4    0    0 -0.25807101725E+02 -0.41159550650E+02  0.26066436581E+02  0.55132333754E+02  0.00000000000E+00 0. -1.
         11    1    4    4    0    0  0.60823732137E+02 -0.41444097574E+02  0.10413159802E+03  0.12751678055E+03  0.00000000000E+00 0.  1.
        -15    1    3    3    0    0 -0.25299777582E+02  0.97586948724E+02 -0.12985096669E+03  0.16440110275E+03  0.17770000000E+01 0. -1.
         15    1    3    3    0    0 -0.97168528289E+01 -0.14983300501E+02 -0.34706791339E+00  0.17949782949E+02  0.17770000000E+01 0.  1.
</event>
<event>
 8    1  0.1798472E-005  0.1827732E+03  0.7546771E-02  0.1068238E+00
        -11   -1    0    0    0    0  0.00000000000E+00  0.00000000000E+00  0.18250000000E+03  0.18250000000E+03  0.00000000000E+00 0.  1.
         11   -1    0    0    0    0 -0.00000000000E+00 -0.00000000000E+00 -0.18250000000E+03  0.18250000000E+03  0.00000000000E+00 0. -1.
         23    2    1    2    0    0  0.10511297678E+03  0.40081358546E+02  0.11092930043E+03  0.18222681639E+03  0.90807762483E+02 0.  0.
         23    2    1    2    0    0 -0.10511297678E+03 -0.40081358546E+02 -0.11092930043E+03  0.18277318361E+03  0.91899258777E+02 0.  0.
        -11    1    4    4    0    0 -0.12279098381E+01  0.23319866544E+02 -0.21534976402E+02  0.31766006152E+02  0.00000000000E+00 0.  1.
         11    1    4    4    0    0 -0.10388506694E+03 -0.63401225090E+02 -0.89394324027E+02  0.15100717746E+03  0.00000000000E+00 0. -1.
        -15    1    3    3    0    0  0.93390496722E+02  0.66892538464E+02  0.82976240246E+02  0.14172018471E+03  0.17770000000E+01 0.  1.
         15    1    3    3    0    0  0.11722480058E+02 -0.26811179918E+02  0.27953060182E+02  0.40506631677E+02  0.17770000000E+01 0. -1.
</event>
<event>
 8    1  0.1798472E-005  0.1833504E+03  0.7546771E-02  0.1067780E+00
        -11   -1    0    0    0    0  0.00000000000E+00  0.00000000000E+00  0.18250000000E+03  0.18250000000E+03  0.00000000000E+00 0. -1.
         11   -1    0    0    0    0 -0.00000000000E+00 -0.00000000000E+00 -0.18250000000E+03  0.18250000000E+03  0.00000000000E+00 0.  1.
         23    2    1    2    0    0 -0.14155265964E+02 -0.64936668412E+02 -0.14450543334E+03  0.18335038967E+03  0.91205277619E+02 0.  0.
         23    2    1    2    0    0  0.14155265964E+02  0.64936668412E+02  0.14450543334E+03  0.18164961033E+03  0.87736071311E+02 0.  0.
        -11    1    4    4    0    0 -0.65319041869E+00  0.57990551042E+02  0.28722750672E+02  0.64717285744E+02  0.00000000000E+00 0.  1.
         11    1    4    4    0    0  0.14808456383E+02  0.69461173704E+01  0.11578268267E+03  0.11693232459E+03  0.00000000000E+00 0. -1.
        -15    1    3    3    0    0 -0.15003302317E+02 -0.68537699469E+02 -0.15604565979E+03  0.17110207771E+03  0.17770000000E+01 0.  1.
         15    1    3    3    0    0  0.84803635304E+00  0.36010310571E+01  0.11540226445E+02  0.12248311955E+02  0.17770000000E+01 0. -1.
</event>
<event>
 7    1  0.1798472E-005  0.2333600E+03  0.7546771E-02  0.1033920E+00
        -11   -1    0    0    0    0  0.00000000000E+00  0.00000000000E+00  0.18250000000E+03  0.18250000000E+03  0.00000000000E+00 0.  1.
         11   -1    0    0    0    0 -0.00000000000E+00 -0.00000000000E+00 -0.18250000000E+03  0.18250000000E+03  0.00000000000E+00 0. -1.
         23    2    1    2    0    0  0.17188918775E+02 -0.16038954674E+02  0.90155157656E+02  0.13164003588E+03  0.92996987048E+02 0.  0.
        -11    1    3    3    0    0 -0.10425231269E+02 -0.50528313301E+02  0.52197689187E+02  0.73392061210E+02  0.00000000000E+00 0. -1.
         11    1    3    3    0    0  0.27614150044E+02  0.34489358628E+02  0.37957468468E+02  0.58247974675E+02  0.00000000000E+00 0.  1.
        -15    1    1    2    0    0  0.85357167995E+02  0.56328563413E+02 -0.62078419947E+02  0.11964798843E+03  0.17770000000E+01 0.  1.
         15    1    1    2    0    0 -0.10254608677E+03 -0.40289608739E+02 -0.28076737709E+02  0.11371197568E+03  0.17770000000E+01 0. -1.
</event>
<event>
 8    1  0.1798472E-005  0.1829800E+03  0.7546771E-02  0.1068073E+00
        -11   -1    0    0    0    0  0.00000000000E+00  0.00000000000E+00  0.18250000000E+03  0.18250000000E+03  0.00000000000E+00 0.  1.
         11   -1    0    0    0    0 -0.00000000000E+00 -0.00000000000E+00 -0.18250000000E+03  0.18250000000E+03  0.00000000000E+00 0.  1.
         23    2    1    2    0    0  0.53863955529E+02 -0.47675469807E+02 -0.14075321801E+03  0.18201995181E+03  0.90252525456E+02 0.  0.
         23    2    1    2    0    0 -0.53863955529E+02  0.47675469807E+02  0.14075321801E+03  0.18298004819E+03  0.92173496899E+02 0.  0.
        -11    1    4    4    0    0 -0.48420737833E+02 -0.16354052903E+02  0.77324851920E+02  0.92688487004E+02  0.00000000000E+00 0.  1.
         11    1    4    4    0    0 -0.54432176962E+01  0.64029522710E+02  0.63428366085E+02  0.90291561187E+02  0.00000000000E+00 0.  1.
        -15    1    3    3    0    0  0.38220540826E+01 -0.62715017456E+02 -0.83023533916E+02  0.10413379098E+03  0.17770000000E+01 0. -1.
         15    1    3    3    0    0  0.50041901447E+02  0.15039547650E+02 -0.57729684089E+02  0.77886160824E+02  0.17770000000E+01 0.  1.
</event>
<event>
 8    1  0.1798472E-005  0.1827840E+03  0.7546771E-02  0.1068229E+00
        -11   -1    0    0    0    0  0.00000000000E+00  0.00000000000E+00  0.18250000000E+03  0.18250000000E+03  0.00000000000E+00 0.  1.
         11   -1    0    0    0    0 -0.00000000000E+00 -0.00000000000E+00 -0.18250000000E+03  0.18250000000E+03  0.00000000000E+00 0. -1.
         23    2    1    2    0    0  0.25390200417E+02 -0.28423127455E+02  0.15416073381E+03  0.18221604816E+03  0.89356700396E+02 0.  0.
         23    2    1    2    0    0 -0.25390200417E+02  0.28423127455E+02 -0.15416073381E+03  0.18278395184E+03  0.90509141793E+02 0.  0.
        -11    1    4    4    0    0  0.34665424143E+01 -0.10927308896E+02 -0.12584547822E+03  0.12636655960E+03  0.00000000000E+00 0.  1.
         11    1    4    4    0    0 -0.28856742831E+02  0.39350436351E+02 -0.28315255593E+02  0.56417392240E+02  0.00000000000E+00 0. -1.
        -15    1    3    3    0    0 -0.16359999123E+02 -0.17607628467E+02  0.21507886719E+01  0.24196317332E+02  0.17770000000E+01 0. -1.
         15    1    3    3    0    0  0.41750199540E+02 -0.10815498988E+02  0.15200994514E+03  0.15801973083E+03  0.17770000000E+01 0.  1.
</event>
<event>
 8    1  0.1798472E-005  0.1831949E+03  0.7546771E-02  0.1067903E+00
        -11   -1    0    0    0    0  0.00000000000E+00  0.00000000000E+00  0.18250000000E+03  0.18250000000E+03  0.00000000000E+00 0.  1.
         11   -1    0    0    0    0 -0.00000000000E+00 -0.00000000000E+00 -0.18250000000E+03  0.18250000000E+03  0.00000000000E+00 0. -1.
         23    2    1    2    0    0  0.68764180950E+02  0.14180238043E+03  0.18364525900E+02  0.18319493245E+03  0.91578926542E+02 0.  0.
         23    2    1    2    0    0 -0.68764180950E+02 -0.14180238043E+03 -0.18364525900E+02  0.18180506755E+03  0.88765979395E+02 0.  0.
        -11    1    4    4    0    0 -0.18252912294E+02 -0.12668871646E+03 -0.95859284745E+01  0.12835532599E+03  0.00000000000E+00 0.  1.
         11    1    4    4    0    0 -0.50511268657E+02 -0.15113663969E+02 -0.87785974258E+01  0.53449741558E+02  0.00000000000E+00 0. -1.
        -15    1    3    3    0    0  0.90020145285E+02  0.11499630565E+03  0.25345152570E+02  0.14823397504E+03  0.17770000000E+01 0.  1.
         15    1    3    3    0    0 -0.21255964335E+02  0.26806074782E+02 -0.69806266694E+01  0.34960957406E+02  0.17770000000E+01 0. -1.
</event>
<event>
 8    1  0.1798472E-005  0.1825129E+03  0.7546771E-02  0.1068445E+00
        -11   -1    0    0    0    0  0.00000000000E+00  0.00000000000E+00  0.18250000000E+03  0.18250000000E+03  0.00000000000E+00 0.  1.
         11   -1    0    0    0    0 -0.00000000000E+00 -0.00000000000E+00 -0.18250000000E+03  0.18250000000E+03  0.00000000000E+00 0. -1.
         23    2    1    2    0    0  0.71637110507E+02 -0.31667976647E+02 -0.14046856926E+03  0.18251294491E+03  0.86283368973E+02 0.  0.
         23    2    1    2    0    0 -0.71637110507E+02  0.31667976647E+02  0.14046856926E+03  0.18248705509E+03  0.86228591426E+02 0.  0.
        -11    1    4    4    0    0 -0.62386227950E+02  0.44481308816E+02  0.14669621422E+03  0.16550047595E+03  0.00000000000E+00 0.  1.
         11    1    4    4    0    0 -0.92508825570E+01 -0.12813332169E+02 -0.62276449589E+01  0.16986579146E+02  0.00000000000E+00 0. -1.
        -15    1    3    3    0    0 -0.62374508430E+01 -0.21780591278E+02 -0.13506984893E+01  0.22765809119E+02  0.17770000000E+01 0.  1.
         15    1    3    3    0    0  0.77874561350E+02 -0.98873853682E+01 -0.13911787077E+03  0.15974713579E+03  0.17770000000E+01 0. -1.
</event>
<event>
 8    1  0.1798472E-005  0.1833658E+03  0.7546771E-02  0.1067768E+00
        -11   -1    0    0    0    0  0.00000000000E+00  0.00000000000E+00  0.18250000000E+03  0.18250000000E+03  0.00000000000E+00 0. -1.
         11   -1    0    0    0    0 -0.00000000000E+00 -0.00000000000E+00 -0.18250000000E+03  0.18250000000E+03  0.00000000000E+00 0.  1.
         23    2    1    2    0    0  0.18580708035E+01 -0.89786363033E+01 -0.15842219255E+03  0.18336575699E+03  0.91876772943E+02 0.  0.
         23    2    1    2    0    0 -0.18580708035E+01  0.89786363033E+01  0.15842219255E+03  0.18163424301E+03  0.88370463421E+02 0.  0.
        -11    1    4    4    0    0 -0.27477288566E+02  0.19866672304E+02  0.17823172094E+02  0.38306024577E+02  0.00000000000E+00 0. -1.
         11    1    4    4    0    0  0.25619217762E+02 -0.10888036001E+02  0.14059902046E+03  0.14332821844E+03  0.00000000000E+00 0.  1.
        -15    1    3    3    0    0 -0.42974838721E+02 -0.95311189454E+01 -0.53862878813E+02  0.69584814683E+02  0.17770000000E+01 0. -1.
         15    1    3    3    0    0  0.44832909525E+02  0.55248264206E+00 -0.10455931374E+03  0.11378094230E+03  0.17770000000E+01 0.  1.
</event>
<event>
 8    1  0.1798472E-005  0.1840607E+03  0.7546771E-02  0.1067219E+00
        -11   -1    0    0    0    0  0.00000000000E+00  0.00000000000E+00  0.18250000000E+03  0.18250000000E+03  0.00000000000E+00 0.  1.
         11   -1    0    0    0    0 -0.00000000000E+00 -0.00000000000E+00 -0.18250000000E+03  0.18250000000E+03  0.00000000000E+00 0. -1.
         23    2    1    2    0    0 -0.42603593738E+01  0.32411900685E+02 -0.15527621061E+03  0.18093933321E+03  0.86946298106E+02 0.  0.
         23    2    1    2    0    0  0.42603593738E+01 -0.32411900685E+02  0.15527621061E+03  0.18406066679E+03  0.93268137689E+02 0.  0.
        -11    1    4    4    0    0  0.20104833054E+02 -0.56624775303E+02  0.13761233881E+03  0.15015900001E+03  0.00000000000E+00 0.  1.
         11    1    4    4    0    0 -0.15844473680E+02  0.24212874618E+02  0.17663871802E+02  0.33901666781E+02  0.00000000000E+00 0. -1.
        -15    1    3    3    0    0 -0.41845132638E+02  0.22574713578E+02 -0.51497705988E+02  0.70112796762E+02  0.17770000000E+01 0. -1.
         15    1    3    3    0    0  0.37584773264E+02  0.98371871070E+01 -0.10377850462E+03  0.11082653645E+03  0.17770000000E+01 0.  1.
</event>
<event>
 8    1  0.1798472E-005  0.1827346E+03  0.7546771E-02  0.1068268E+00
        -11   -1    0    0    0    0  0.00000000000E+00  0.00000000000E+00  0.18250000000E+03  0.18250000000E+03  0.00000000000E+00 0.  1.
         11   -1    0    0    0    0 -0.00000000000E+00 -0.00000000000E+00 -0.18250000000E+03  0.18250000000E+03  0.00000000000E+00 0. -1.
         23    2    1    2    0    0  0.35465703804E+02 -0.45438663497E+02 -0.14755693047E+03  0.18226535764E+03  0.90139472929E+02 0.  0.
         23    2    1    2    0    0 -0.35465703804E+02  0.45438663497E+02  0.14755693047E+03  0.18273464236E+03  0.91084650209E+02 0.  0.
        -11    1    4    4    0    0 -0.59597756088E+02  0.55348368420E+02  0.10497928377E+03  0.13280054382E+03  0.00000000000E+00 0.  1.
         11    1    4    4    0    0  0.24132052285E+02 -0.99097049237E+01  0.42577646692E+02  0.49934098540E+02  0.00000000000E+00 0. -1.
        -15    1    3    3    0    0 -0.10448865540E+02 -0.40779971289E+02 -0.20069967036E+02  0.46670613402E+02  0.17770000000E+01 0.  1.
         15    1    3    3    0    0  0.45914569344E+02 -0.46586922070E+01 -0.12748696343E+03  0.13559474424E+03  0.17770000000E+01 0. -1.
</event>
<event>
 8    1  0.1798472E-005  0.1828727E+03  0.7546771E-02  0.1068159E+00
        -11   -1    0    0    0    0  0.00000000000E+00  0.00000000000E+00  0.18250000000E+03  0.18250000000E+03  0.00000000000E+00 0.  1.
         11   -1    0    0    0    0 -0.00000000000E+00 -0.00000000000E+00 -0.18250000000E+03  0.18250000000E+03  0.00000000000E+00 0. -1.
         23    2    1    2    0    0  0.74059748709E+02 -0.11190135152E+03 -0.82311569276E+02  0.18287272500E+03  0.93061701358E+02 0.  0.
         23    2    1    2    0    0 -0.74059748709E+02  0.11190135152E+03  0.82311569276E+02  0.18212727500E+03  0.91588159775E+02 0.  0.
        -11    1    4    4    0    0 -0.43295307408E+02  0.73813843325E+02  0.98574210881E+02  0.13053674640E+03  0.00000000000E+00 0.  1.
         11    1    4    4    0    0 -0.30764441301E+02  0.38087508199E+02 -0.16262641605E+02  0.51590528601E+02  0.00000000000E+00 0. -1.
        -15    1    3    3    0    0  0.38184590810E+02 -0.75021099208E+02  0.18447107683E+01  0.84218697381E+02  0.17770000000E+01 0.  1.
         15    1    3    3    0    0  0.35875157899E+02 -0.36880252317E+02 -0.84156280044E+02  0.98654027618E+02  0.17770000000E+01 0. -1.
</event>
<event>
 8    1  0.1798472E-005  0.1825462E+03  0.7546771E-02  0.1068418E+00
        -11   -1    0    0    0    0  0.00000000000E+00  0.00000000000E+00  0.18250000000E+03  0.18250000000E+03  0.00000000000E+00 0.  1.
         11   -1    0    0    0    0 -0.00000000000E+00 -0.00000000000E+00 -0.18250000000E+03  0.18250000000E+03  0.00000000000E+00 0. -1.
         23    2    1    2    0    0  0.10409307440E+03 -0.19986429070E+02  0.11727008666E+03  0.18245381398E+03  0.91116933261E+02 0.  0.
         23    2    1    2    0    0 -0.10409307440E+03  0.19986429070E+02 -0.11727008666E+03  0.18254618602E+03  0.91301759679E+02 0.  0.
        -11    1    4    4    0    0 -0.55285997092E+02 -0.93484107508E+01 -0.45453383117E+01  0.56254727431E+02  0.00000000000E+00 0.  1.
         11    1    4    4    0    0 -0.48807077309E+02  0.29334839821E+02 -0.11272474834E+03  0.12629145859E+03  0.00000000000E+00 0. -1.
        -15    1    3    3    0    0  0.42559287799E+02 -0.54376881700E+02  0.62741089554E+02  0.93315273609E+02  0.17770000000E+01 0.  1.
         15    1    3    3    0    0  0.61533786602E+02  0.34390452630E+02  0.54528997102E+02  0.89138540372E+02  0.17770000000E+01 0. -1.
</event>
<event>
 8    1  0.1798472E-005  0.1830027E+03  0.7546771E-02  0.1068055E+00
        -11   -1    0    0    0    0  0.00000000000E+00  0.00000000000E+00  0.18250000000E+03  0.18250000000E+03  0.00000000000E+00 0.  1.
         11   -1    0    0    0    0 -0.00000000000E+00 -0.00000000000E+00 -0.18250000000E+03  0.18250000000E+03  0.00000000000E+00 0. -1.
         23    2    1    2    0    0 -0.26712100822E+02 -0.33267817580E+02  0.15230804504E+03  0.18199732617E+03  0.90027785331E+02 0.  0.
         23    2    1    2    0    0  0.26712100822E+02  0.33267817580E+02 -0.15230804504E+03  0.18300267383E+03  0.92043218264E+02 0.  0.
        -11    1    4    4    0    0  0.31594136108E+02  0.31042895568E+01 -0.14891212552E+03  0.15225848803E+03  0.00000000000E+00 0. -1.
         11    1    4    4    0    0 -0.48820352863E+01  0.30163528023E+02 -0.33959195227E+01  0.30744185804E+02  0.00000000000E+00 0.  1.
        -15    1    3    3    0    0 -0.58675891243E+01 -0.21806503660E+02 -0.47445857941E+01  0.23143487796E+02  0.17770000000E+01 0. -1.
         15    1    3    3    0    0 -0.20844511698E+02 -0.11461313920E+02  0.15705263083E+03  0.15885383837E+03  0.17770000000E+01 0.  1.
</event>
<event>
 8    1  0.1798472E-005  0.1916738E+03  0.7546771E-02  0.1061378E+00
        -11   -1    0    0    0    0  0.00000000000E+00  0.00000000000E+00  0.18250000000E+03  0.18250000000E+03  0.00000000000E+00 0. -1.
         11   -1    0    0    0    0 -0.00000000000E+00 -0.00000000000E+00 -0.18250000000E+03  0.18250000000E+03  0.00000000000E+00 0. -1.
         23    2    1    2    0    0 -0.19986995801E+02  0.20248387606E+02 -0.14482299687E+03  0.17332615148E+03  0.90877814471E+02 0.  0.
         23    2    1    2    0    0  0.19986995801E+02 -0.20248387606E+02  0.14482299687E+03  0.19167384852E+03  0.12229344456E+03 0.  0.
        -11    1    4    4    0    0 -0.41843270753E+02 -0.40860134997E+02  0.85195813048E+02  0.10333797221E+03  0.00000000000E+00 0. -1.
         11    1    4    4    0    0  0.61830266555E+02  0.20611747391E+02  0.59627183823E+02  0.88335876309E+02  0.00000000000E+00 0. -1.
        -15    1    3    3    0    0 -0.12838266092E+02 -0.94157704550E+00  0.10304708258E+02  0.16584703339E+02  0.17770000000E+01 0.  1.
         15    1    3    3    0    0 -0.71487297093E+01  0.21189964651E+02 -0.15512770513E+03  0.15674144814E+03  0.17770000000E+01 0. -1.
</event>
<event>
 8    1  0.1798472E-005  0.1829133E+03  0.7546771E-02  0.1068126E+00
        -11   -1    0    0    0    0  0.00000000000E+00  0.00000000000E+00  0.18250000000E+03  0.18250000000E+03  0.00000000000E+00 0.  1.
         11   -1    0    0    0    0 -0.00000000000E+00 -0.00000000000E+00 -0.18250000000E+03  0.18250000000E+03  0.00000000000E+00 0. -1.
         23    2    1    2    0    0 -0.15212421748E+03 -0.42798219179E+02 -0.11139928486E+02  0.18291334990E+03  0.91431561602E+02 0.  0.
         23    2    1    2    0    0  0.15212421748E+03  0.42798219179E+02  0.11139928486E+02  0.18208665010E+03  0.89766280032E+02 0.  0.
        -11    1    4    4    0    0  0.15696851923E+03  0.55869447151E+02  0.15862863857E+02  0.16736828135E+03  0.00000000000E+00 0. -1.
         11    1    4    4    0    0 -0.48443017496E+01 -0.13071227972E+02 -0.47229353715E+01  0.14718368750E+02  0.00000000000E+00 0.  1.
        -15    1    3    3    0    0 -0.95397874745E+02 -0.14340308207E+02  0.36895744588E+02  0.10329981918E+03  0.17770000000E+01 0.  1.
         15    1    3    3    0    0 -0.56726342731E+02 -0.28457910972E+02 -0.48035673074E+02  0.79613530717E+02  0.17770000000E+01 0. -1.
</event>
<event>
 8    1  0.1798472E-005  0.1829558E+03  0.7546771E-02  0.1068093E+00
        -11   -1    0    0    0    0  0.00000000000E+00  0.00000000000E+00  0.18250000000E+03  0.18250000000E+03  0.00000000000E+00 0.  1.
         11   -1    0    0    0    0 -0.00000000000E+00 -0.00000000000E+00 -0.18250000000E+03  0.18250000000E+03  0.00000000000E+00 0. -1.
         23    2    1    2    0    0  0.11083207492E+03  0.16233491416E+02  0.11193622299E+03  0.18204419315E+03  0.89794739079E+02 0.  0.
         23    2    1    2    0    0 -0.11083207492E+03 -0.16233491416E+02 -0.11193622299E+03  0.18295580685E+03  0.91628784597E+02 0.  0.
        -11    1    4    4    0    0 -0.10370430777E+03 -0.22194922797E+02 -0.12687578775E+03  0.16536221928E+03  0.00000000000E+00 0. -1.
         11    1    4    4    0    0 -0.71277671522E+01  0.59614313812E+01  0.14939564752E+02  0.17593587573E+02  0.00000000000E+00 0.  1.
        -15    1    3    3    0    0  0.11074878151E+03 -0.13746136479E+02  0.75145300508E+02  0.13455193343E+03  0.17770000000E+01 0.  1.
         15    1    3    3    0    0  0.83293414369E-01  0.29979627894E+02  0.36790922487E+02  0.47492259716E+02  0.17770000000E+01 0.  1.
</event>
<event>
 8    1  0.1798472E-005  0.1825113E+03  0.7546771E-02  0.1068446E+00
        -11   -1    0    0    0    0  0.00000000000E+00  0.00000000000E+00  0.18250000000E+03  0.18250000000E+03  0.00000000000E+00 0. -1.
         11   -1    0    0    0    0 -0.00000000000E+00 -0.00000000000E+00 -0.18250000000E+03  0.18250000000E+03  0.00000000000E+00 0.  1.
         23    2    1    2    0    0 -0.28673179618E+02 -0.10143485149E+03 -0.11750060706E+03  0.18251126866E+03  0.91612172781E+02 0.  0.
         23    2    1    2    0    0  0.28673179618E+02  0.10143485149E+03  0.11750060706E+03  0.18248873134E+03  0.91567265346E+02 0.  0.
        -11    1    4    4    0    0  0.46746250212E+02  0.13365476776E+02  0.30581310355E+02  0.57437482721E+02  0.00000000000E+00 0. -1.
         11    1    4    4    0    0 -0.18073070594E+02  0.88069374711E+02  0.86919296703E+02  0.12505124862E+03  0.00000000000E+00 0.  1.
        -15    1    3    3    0    0  0.31466200754E+02 -0.47259445364E+02 -0.33988127035E+02  0.66196128847E+02  0.17770000000E+01 0. -1.
         15    1    3    3    0    0 -0.60139380372E+02 -0.54175406123E+02 -0.83512480023E+02  0.11631513981E+03  0.17770000000E+01 0.  1.
</event>
<event>
 8    1  0.1798472E-005  0.1835392E+03  0.7546771E-02  0.1067631E+00
        -11   -1    0    0    0    0  0.00000000000E+00  0.00000000000E+00  0.18250000000E+03  0.18250000000E+03  0.00000000000E+00 0.  1.
         11   -1    0    0    0    0 -0.00000000000E+00 -0.00000000000E+00 -0.18250000000E+03  0.18250000000E+03  0.00000000000E+00 0. -1.
         23    2    1    2    0    0 -0.42723355179E+02 -0.20310052625E+02  0.15109385226E+03  0.18353917409E+03  0.92841224244E+02 0.  0.
         23    2    1    2    0    0  0.42723355179E+02  0.20310052625E+02 -0.15109385226E+03  0.18146082591E+03  0.88661693162E+02 0.  0.
        -11    1    4    4    0    0  0.40745977821E+02 -0.25750646757E+02 -0.10836664504E+03  0.11860295222E+03  0.00000000000E+00 0. -1.
         11    1    4    4    0    0  0.19773773583E+01  0.46060699382E+02 -0.42727207219E+02  0.62857873696E+02  0.00000000000E+00 0.  1.
        -15    1    3    3    0    0  0.99763522698E+01  0.24478131432E+02  0.13968709286E+02  0.29949776145E+02  0.17770000000E+01 0. -1.
         15    1    3    3    0    0 -0.52699707449E+02 -0.44788184057E+02  0.13712514297E+03  0.15358939794E+03  0.17770000000E+01 0.  1.
</event>
<event>
 8    1  0.1798472E-005  0.1851786E+03  0.7546771E-02  0.1066342E+00
        -11   -1    0    0    0    0  0.00000000000E+00  0.00000000000E+00  0.18250000000E+03  0.18250000000E+03  0.00000000000E+00 0. -1.
         11   -1    0    0    0    0 -0.00000000000E+00 -0.00000000000E+00 -0.18250000000E+03  0.18250000000E+03  0.00000000000E+00 0.  1.
         23    2    1    2    0    0 -0.34867585268E+02  0.51973074623E+02  0.14862833522E+03  0.17982135365E+03  0.79551167246E+02 0.  0.
         23    2    1    2    0    0  0.34867585268E+02 -0.51973074623E+02 -0.14862833522E+03  0.18517864635E+03  0.91015383569E+02 0.  0.
        -11    1    4    4    0    0  0.33314824290E+01 -0.65661067248E+02 -0.13093465483E+03  0.14651402104E+03  0.00000000000E+00 0.  1.
         11    1    4    4    0    0  0.31536102839E+02  0.13687992625E+02 -0.17693680389E+02  0.38664625306E+02  0.00000000000E+00 0. -1.
        -15    1    3    3    0    0  0.79899313725E+01  0.71594404647E+01  0.10107428730E+03  0.10165759132E+03  0.17770000000E+01 0.  1.
         15    1    3    3    0    0 -0.42857516640E+02  0.44813634158E+02  0.47554047923E+02  0.78163762332E+02  0.17770000000E+01 0. -1.
</event>
<event>
 8    1  0.1798472E-005  0.1825045E+03  0.7546771E-02  0.1068451E+00
        -11   -1    0    0    0    0  0.00000000000E+00  0.00000000000E+00  0.18250000000E+03  0.18250000000E+03  0.00000000000E+00 0.  1.
         11   -1    0    0    0    0 -0.00000000000E+00 -0.00000000000E+00 -0.18250000000E+03  0.18250000000E+03  0.00000000000E+00 0. -1.
         23    2    1    2    0    0 -0.13722694688E+03  0.37897918277E+02  0.66922795937E+02  0.18249553046E+03  0.92512003884E+02 0.  0.
         23    2    1    2    0    0  0.13722694688E+03 -0.37897918277E+02 -0.66922795937E+02  0.18250446954E+03  0.92529636469E+02 0.  0.
        -11    1    4    4    0    0 -0.10555003475E+02 -0.16852211436E+02 -0.13158784140E+02  0.23844469562E+02  0.00000000000E+00 0.  1.
         11    1    4    4    0    0  0.14778195036E+03 -0.21045706840E+02 -0.53764011797E+02  0.15865999998E+03  0.00000000000E+00 0. -1.
        -15    1    3    3    0    0 -0.12058160898E+03  0.23274658307E+02  0.88604278624E+02  0.15144474261E+03  0.17770000000E+01 0.  1.
         15    1    3    3    0    0 -0.16645337901E+02  0.14623259970E+02 -0.21681482687E+02  0.31050787856E+02  0.17770000000E+01 0. -1.
</event>
<event>
 8    1  0.1798472E-005  0.1826056E+03  0.7546771E-02  0.1068371E+00
        -11   -1    0    0    0    0  0.00000000000E+00  0.00000000000E+00  0.18250000000E+03  0.18250000000E+03  0.00000000000E+00 0. -1.
         11   -1    0    0    0    0 -0.00000000000E+00 -0.00000000000E+00 -0.18250000000E+03  0.18250000000E+03  0.00000000000E+00 0.  1.
         23    2    1    2    0    0  0.11870676805E+02 -0.12324479874E+02 -0.15659510739E+03  0.18239441988E+03  0.91939605036E+02 0.  0.
         23    2    1    2    0    0 -0.11870676805E+02  0.12324479874E+02  0.15659510739E+03  0.18260558012E+03  0.92357806699E+02 0.  0.
        -11    1    4    4    0    0  0.71142035111E+01  0.44559125161E+02  0.12739035800E+03  0.13514596123E+03  0.00000000000E+00 0. -1.
         11    1    4    4    0    0 -0.18984880316E+02 -0.32234645286E+02  0.29204749396E+02  0.47459618884E+02  0.00000000000E+00 0.  1.
        -15    1    3    3    0    0 -0.18570309132E+02 -0.18063676127E+02 -0.35184734062E+01  0.26204773622E+02  0.17770000000E+01 0. -1.
         15    1    3    3    0    0  0.30440985937E+02  0.57391962529E+01 -0.15307663399E+03  0.15618964626E+03  0.17770000000E+01 0.  1.
</event>
<event>
 8    1  0.1798472E-005  0.1832608E+03  0.7546771E-02  0.1067851E+00
        -11   -1    0    0    0    0  0.00000000000E+00  0.00000000000E+00  0.18250000000E+03  0.18250000000E+03  0.00000000000E+00 0.  1.
         11   -1    0    0    0    0 -0.00000000000E+00 -0.00000000000E+00 -0.18250000000E+03  0.18250000000E+03  0.00000000000E+00 0. -1.
         23    2    1    2    0    0 -0.72456853486E+00 -0.70937878405E+02  0.14184662074E+03  0.18173923758E+03  0.88746713002E+02 0.  0.
         23    2    1    2    0    0  0.72456853486E+00  0.70937878405E+02 -0.14184662074E+03  0.18326076242E+03  0.91822304666E+02 0.  0.
        -11    1    4    4    0    0 -0.42743964431E+02  0.15245258209E+02 -0.54645909971E+02  0.71032667623E+02  0.00000000000E+00 0. -1.
         11    1    4    4    0    0  0.43468532965E+02  0.55692620196E+02 -0.87200710770E+02  0.11222809480E+03  0.00000000000E+00 0.  1.
        -15    1    3    3    0    0 -0.36899494853E+02 -0.46682416995E+02  0.42187851521E+02  0.72964329106E+02  0.17770000000E+01 0. -1.
         15    1    3    3    0    0  0.36174926318E+02 -0.24255461410E+02  0.99658769221E+02  0.10877490848E+03  0.17770000000E+01 0.  1.
</event>
<event>
 8    1  0.1798472E-005  0.1825029E+03  0.7546771E-02  0.1068452E+00
        -11   -1    0    0    0    0  0.00000000000E+00  0.00000000000E+00  0.18250000000E+03  0.18250000000E+03  0.00000000000E+00 0. -1.
         11   -1    0    0    0    0 -0.00000000000E+00 -0.00000000000E+00 -0.18250000000E+03  0.18250000000E+03  0.00000000000E+00 0.  1.
         23    2    1    2    0    0 -0.10875839219E+03  0.49320058500E+02  0.10399225110E+03  0.18250291254E+03  0.90730748671E+02 0.  0.
         23    2    1    2    0    0  0.10875839219E+03 -0.49320058500E+02 -0.10399225110E+03  0.18249708746E+03  0.90719031076E+02 0.  0.
        -11    1    4    4    0    0  0.24695868236E+02  0.11379502502E+02  0.94705989213E+01  0.28793597014E+02  0.00000000000E+00 0. -1.
         11    1    4    4    0    0  0.84062523958E+02 -0.60699561002E+02 -0.11346285002E+03  0.15370349044E+03  0.00000000000E+00 0.  1.
        -15    1    3    3    0    0 -0.28259879689E+02  0.13641606416E+02 -0.14706275286E+02  0.34700813931E+02  0.17770000000E+01 0.  1.
         15    1    3    3    0    0 -0.80498512504E+02  0.35678452084E+02  0.11869852639E+03  0.14780209861E+03  0.17770000000E+01 0. -1.
</event>
<event>
 8    1  0.1798472E-005  0.1828033E+03  0.7546771E-02  0.1068214E+00
        -11   -1    0    0    0    0  0.00000000000E+00  0.00000000000E+00  0.18250000000E+03  0.18250000000E+03  0.00000000000E+00 0.  1.
         11   -1    0    0    0    0 -0.00000000000E+00 -0.00000000000E+00 -0.18250000000E+03  0.18250000000E+03  0.00000000000E+00 0. -1.
         23    2    1    2    0    0  0.41811664817E+01 -0.49751883875E+02 -0.15000715248E+03  0.18280330466E+03  0.91772383092E+02 0.  0.
         23    2    1    2    0    0 -0.41811664817E+01  0.49751883875E+02  0.15000715248E+03  0.18219669534E+03  0.90558036072E+02 0.  0.
        -11    1    4    4    0    0 -0.20779746093E+02  0.58659445540E+02  0.15101222552E+03  0.16333224009E+03  0.00000000000E+00 0.  1.
         11    1    4    4    0    0  0.16598579611E+02 -0.89075616653E+01 -0.10050730420E+01  0.18864455246E+02  0.00000000000E+00 0. -1.
        -15    1    3    3    0    0  0.19017682622E+02  0.34834693495E+01  0.34221709049E+01  0.19714862255E+02  0.17770000000E+01 0.  1.
         15    1    3    3    0    0 -0.14836516140E+02 -0.53235353224E+02 -0.15342932338E+03  0.16308844240E+03  0.17770000000E+01 0. -1.
</event>
<event>
 8    1  0.1798472E-005  0.1829367E+03  0.7546771E-02  0.1068108E+00
        -11   -1    0    0    0    0  0.00000000000E+00  0.00000000000E+00  0.18250000000E+03  0.18250000000E+03  0.00000000000E+00 0. -1.
         11   -1    0    0    0    0 -0.00000000000E+00 -0.00000000000E+00 -0.18250000000E+03  0.18250000000E+03  0.00000000000E+00 0.  1.
         23    2    1    2    0    0 -0.84038925335E+02  0.73271861111E+01 -0.13418914886E+03  0.18206332736E+03  0.89577334560E+02 0.  0.
         23    2    1    2    0    0  0.84038925335E+02 -0.73271861111E+01  0.13418914886E+03  0.18293667264E+03  0.91339311897E+02 0.  0.
        -11    1    4    4    0    0  0.78943917863E+02 -0.30066498445E+02  0.56006736375E+02  0.10135527128E+03  0.00000000000E+00 0.  1.
         11    1    4    4    0    0  0.50950074722E+01  0.22739312334E+02  0.78182412489E+02  0.81581401368E+02  0.00000000000E+00 0. -1.
        -15    1    3    3    0    0 -0.16210281645E+02 -0.14591194417E+02 -0.10112603069E+03  0.10346645832E+03  0.17770000000E+01 0.  1.
         15    1    3    3    0    0 -0.67828643690E+02  0.21918380528E+02 -0.33063118178E+02  0.78596869037E+02  0.17770000000E+01 0. -1.
</event>
<event>
 8    1  0.1798472E-005  0.1828569E+03  0.7546771E-02  0.1068171E+00
        -11   -1    0    0    0    0  0.00000000000E+00  0.00000000000E+00  0.18250000000E+03  0.18250000000E+03  0.00000000000E+00 0. -1.
         11   -1    0    0    0    0 -0.00000000000E+00 -0.00000000000E+00 -0.18250000000E+03  0.18250000000E+03  0.00000000000E+00 0.  1.
         23    2    1    2    0    0  0.15228608226E+02  0.44572198965E+02 -0.15079284064E+03  0.18285686835E+03  0.92084537718E+02 0.  0.
         23    2    1    2    0    0 -0.15228608226E+02 -0.44572198965E+02  0.15079284064E+03  0.18214313165E+03  0.90658966411E+02 0.  0.
        -11    1    4    4    0    0  0.25651989772E+02 -0.11061863071E+02  0.67953963466E+01  0.28750074876E+02  0.00000000000E+00 0.  1.
         11    1    4    4    0    0 -0.40880597997E+02 -0.33510335894E+02  0.14399744429E+03  0.15339305677E+03  0.00000000000E+00 0. -1.
        -15    1    3    3    0    0  0.39711437930E+02  0.17561348770E+02 -0.21450023840E+02  0.48462980973E+02  0.17770000000E+01 0.  1.
         15    1    3    3    0    0 -0.24482829704E+02  0.27010850196E+02 -0.12934281680E+03  0.13439388738E+03  0.17770000000E+01 0. -1.
</event>
<event>
 8    1  0.1798472E-005  0.1830799E+03  0.7546771E-02  0.1067994E+00
        -11   -1    0    0    0    0  0.00000000000E+00  0.00000000000E+00  0.18250000000E+03  0.18250000000E+03  0.00000000000E+00 0.  1.
         11   -1    0    0    0    0 -0.00000000000E+00 -0.00000000000E+00 -0.18250000000E+03  0.18250000000E+03  0.00000000000E+00 0. -1.
         23    2    1    2    0    0 -0.71395433559E+02  0.22929919029E+02 -0.13920858846E+03  0.18192007344E+03  0.89959951648E+02 0.  0.
         23    2    1    2    0    0  0.71395433559E+02 -0.22929919029E+02  0.13920858846E+03  0.18307992656E+03  0.92282930649E+02 0.  0.
        -11    1    4    4    0    0 -0.77705253366E+01 -0.32048375432E+02  0.16779986347E+02  0.37000640178E+02  0.00000000000E+00 0.  1.
         11    1    4    4    0    0  0.79165958895E+02  0.91184564026E+01  0.12242860211E+03  0.14607928638E+03  0.00000000000E+00 0. -1.
        -15    1    3    3    0    0 -0.14540807126E+02 -0.18679961444E+02  0.22823555135E+01  0.23848331328E+02  0.17770000000E+01 0.  1.
         15    1    3    3    0    0 -0.56854626432E+02  0.41609880473E+02 -0.14149094397E+03  0.15807174211E+03  0.17770000000E+01 0. -1.
</event>
<event>
 8    1  0.1798472E-005  0.1838471E+03  0.7546771E-02  0.1067388E+00
        -11   -1    0    0    0    0  0.00000000000E+00  0.00000000000E+00  0.18250000000E+03  0.18250000000E+03  0.00000000000E+00 0.  1.
         11   -1    0    0    0    0 -0.00000000000E+00 -0.00000000000E+00 -0.18250000000E+03  0.18250000000E+03  0.00000000000E+00 0. -1.
         23    2    1    2    0    0  0.24941196975E+02  0.11115540963E+03 -0.10892692800E+03  0.18115293329E+03  0.89295695305E+02 0.  0.
         23    2    1    2    0    0 -0.24941196975E+02 -0.11115540963E+03  0.10892692800E+03  0.18384706671E+03  0.94641850663E+02 0.  0.
        -11    1    4    4    0    0  0.44572836402E+00 -0.57816681969E+02  0.11054540900E+03  0.12475277488E+03  0.00000000000E+00 0.  1.
         11    1    4    4    0    0 -0.25386925339E+02 -0.53338727659E+02 -0.16184809993E+01  0.59094291832E+02  0.00000000000E+00 0. -1.
        -15    1    3    3    0    0  0.32738812541E+02  0.11837108174E+03 -0.11544294122E+03  0.16856385510E+03  0.17770000000E+01 0. -1.
         15    1    3    3    0    0 -0.77976155657E+01 -0.72156721093E+01  0.65160132198E+01  0.12589078194E+02  0.17770000000E+01 0.  1.
</event>
<event>
 8    1  0.1798472E-005  0.1833388E+03  0.7546771E-02  0.1067789E+00
        -11   -1    0    0    0    0  0.00000000000E+00  0.00000000000E+00  0.18250000000E+03  0.18250000000E+03  0.00000000000E+00 0. -1.
         11   -1    0    0    0    0 -0.00000000000E+00 -0.00000000000E+00 -0.18250000000E+03  0.18250000000E+03  0.00000000000E+00 0.  1.
         23    2    1    2    0    0 -0.12963585862E+02 -0.59843931790E+02 -0.14617412709E+03  0.18333877701E+03  0.92178527848E+02 0.  0.
         23    2    1    2    0    0  0.12963585862E+02  0.59843931790E+02  0.14617412709E+03  0.18166122299E+03  0.88795122481E+02 0.  0.
        -11    1    4    4    0    0  0.40881633017E+02  0.18569762904E+02  0.26767892144E+02  0.52274889405E+02  0.00000000000E+00 0.  1.
         11    1    4    4    0    0 -0.27918047155E+02  0.41274168886E+02  0.11940623494E+03  0.12938633358E+03  0.00000000000E+00 0. -1.
        -15    1    3    3    0    0 -0.29251265991E+02 -0.53287999426E+00 -0.10569935083E+03  0.10968788000E+03  0.17770000000E+01 0.  1.
         15    1    3    3    0    0  0.16287680129E+02 -0.59311051796E+02 -0.40474776256E+02  0.73650897015E+02  0.17770000000E+01 0. -1.
</event>
<event>
 8    1  0.1798472E-005  0.1828889E+03  0.7546771E-02  0.1068146E+00
        -11   -1    0    0    0    0  0.00000000000E+00  0.00000000000E+00  0.18250000000E+03  0.18250000000E+03  0.00000000000E+00 0.  1.
         11   -1    0    0    0    0 -0.00000000000E+00 -0.00000000000E+00 -0.18250000000E+03  0.18250000000E+03  0.00000000000E+00 0. -1.
         23    2    1    2    0    0 -0.54785642436E+02  0.12821669455E+03 -0.76029502723E+02  0.18288887589E+03  0.90702085216E+02 0.  0.
         23    2    1    2    0    0  0.54785642436E+02 -0.12821669455E+03  0.76029502723E+02  0.18211112411E+03  0.89123447307E+02 0.  0.
        -11    1    4    4    0    0  0.19737871536E+02 -0.78339766107E+02  0.88564236105E+02  0.11987629642E+03  0.00000000000E+00 0.  1.
         11    1    4    4    0    0  0.35047770899E+02 -0.49876928445E+02 -0.12534733382E+02  0.62234827686E+02  0.00000000000E+00 0. -1.
        -15    1    3    3    0    0 -0.67038148920E+02  0.99637990714E+02 -0.24346593805E+02  0.12254695820E+03  0.17770000000E+01 0. -1.
         15    1    3    3    0    0  0.12252506485E+02  0.28578703838E+02 -0.51682908918E+02  0.60341917698E+02  0.17770000000E+01 0.  1.
</event>
<event>
 8    1  0.1798472E-005  0.1834959E+03  0.7546771E-02  0.1067665E+00
        -11   -1    0    0    0    0  0.00000000000E+00  0.00000000000E+00  0.18250000000E+03  0.18250000000E+03  0.00000000000E+00 0.  1.
         11   -1    0    0    0    0 -0.00000000000E+00 -0.00000000000E+00 -0.18250000000E+03  0.18250000000E+03  0.00000000000E+00 0. -1.
         23    2    1    2    0    0  0.11279080205E+03 -0.10904866174E+03  0.83264048373E+01  0.18150411398E+03  0.90890256453E+02 0.  0.
         23    2    1    2    0    0 -0.11279080205E+03  0.10904866174E+03 -0.83264048373E+01  0.18349588602E+03  0.94805250460E+02 0.  0.
        -11    1    4    4    0    0 -0.81469380121E+02  0.12101083003E+03  0.82123534116E+01  0.14611065543E+03  0.00000000000E+00 0.  1.
         11    1    4    4    0    0 -0.31321421930E+02 -0.11962168290E+02 -0.16538758249E+02  0.37385230591E+02  0.00000000000E+00 0. -1.
        -15    1    3    3    0    0  0.88759981348E+02 -0.31818264749E+02 -0.18823743573E+02  0.96167704099E+02  0.17770000000E+01 0.  1.
         15    1    3    3    0    0  0.24030820704E+02 -0.77230396992E+02  0.27150148410E+02  0.85336409879E+02  0.17770000000E+01 0. -1.
</event>
<event>
 8    1  0.1798472E-005  0.1834849E+03  0.7546771E-02  0.1067674E+00
        -11   -1    0    0    0    0  0.00000000000E+00  0.00000000000E+00  0.18250000000E+03  0.18250000000E+03  0.00000000000E+00 0. -1.
         11   -1    0    0    0    0 -0.00000000000E+00 -0.00000000000E+00 -0.18250000000E+03  0.18250000000E+03  0.00000000000E+00 0.  1.
         23    2    1    2    0    0 -0.16732482025E+02  0.17575503005E+02  0.15510456769E+03  0.18348486072E+03  0.94975749187E+02 0.  0.
         23    2    1    2    0    0  0.16732482025E+02 -0.17575503005E+02 -0.15510456769E+03  0.18151513928E+03  0.91112263779E+02 0.  0.
        -11    1    4    4    0    0 -0.30272041305E+02 -0.21387338558E+02 -0.29571012720E+02  0.47415815174E+02  0.00000000000E+00 0. -1.
         11    1    4    4    0    0  0.47004523330E+02  0.38118355529E+01 -0.12553355497E+03  0.13409932411E+03  0.00000000000E+00 0.  1.
        -15    1    3    3    0    0 -0.38503474241E+02 -0.14270955895E+02  0.13252080572E+03  0.13874833112E+03  0.17770000000E+01 0. -1.
         15    1    3    3    0    0  0.21770992216E+02  0.31846458900E+02  0.22583761965E+02  0.44736529593E+02  0.17770000000E+01 0.  1.
</event>
<event>
 8    1  0.1798472E-005  0.1826596E+03  0.7546771E-02  0.1068328E+00
        -11   -1    0    0    0    0  0.00000000000E+00  0.00000000000E+00  0.18250000000E+03  0.18250000000E+03  0.00000000000E+00 0.  1.
         11   -1    0    0    0    0 -0.00000000000E+00 -0.00000000000E+00 -0.18250000000E+03  0.18250000000E+03  0.00000000000E+00 0. -1.
         23    2    1    2    0    0 -0.15812985433E+02  0.33372728335E+02 -0.15277484776E+03  0.18265956991E+03  0.93062209665E+02 0.  0.
         23    2    1    2    0    0  0.15812985433E+02 -0.33372728335E+02  0.15277484776E+03  0.18234043009E+03  0.92434240583E+02 0.  0.
        -11    1    4    4    0    0  0.34718837384E+02 -0.50393741407E+02  0.58374596072E+02  0.84572574212E+02  0.00000000000E+00 0.  1.
         11    1    4    4    0    0 -0.18905851951E+02  0.17021013072E+02  0.94400251687E+02  0.97767855876E+02  0.00000000000E+00 0. -1.
        -15    1    3    3    0    0 -0.83064267821E+01 -0.23728230519E+02 -0.73761576371E+01  0.26260066259E+02  0.17770000000E+01 0.  1.
         15    1    3    3    0    0 -0.75065586504E+01  0.57100958854E+02 -0.14539869012E+03  0.15639950365E+03  0.17770000000E+01 0. -1.
</event>
<event>
 8    1  0.1798472E-005  0.1825277E+03  0.7546771E-02  0.1068433E+00
        -11   -1    0    0    0    0  0.00000000000E+00  0.00000000000E+00  0.18250000000E+03  0.18250000000E+03  0.00000000000E+00 0.  1.
         11   -1    0    0    0    0 -0.00000000000E+00 -0.00000000000E+00 -0.18250000000E+03  0.18250000000E+03  0.00000000000E+00 0. -1.
         23    2    1    2    0    0  0.31407507091E+02  0.12715037323E+03  0.89079409598E+02  0.18252773417E+03  0.90706028538E+02 0.  0.
         23    2    1    2    0    0 -0.31407507091E+02 -0.12715037323E+03 -0.89079409598E+02  0.18247226583E+03  0.90594357816E+02 0.  0.
        -11    1    4    4    0    0 -0.61126280061E+02 -0.10222241601E+03 -0.56545278154E+02  0.13184541300E+03  0.00000000000E+00 0.  1.
         11    1    4    4    0    0  0.29718772970E+02 -0.24927957223E+02 -0.32534131445E+02  0.50626852826E+02  0.00000000000E+00 0. -1.
        -15    1    3    3    0    0  0.43304016419E+02  0.64604459922E+02  0.62565538499E+01  0.78046628850E+02  0.17770000000E+01 0. -1.
         15    1    3    3    0    0 -0.11896509328E+02  0.62545913308E+02  0.82822855749E+02  0.10448110532E+03  0.17770000000E+01 0.  1.
</event>
<event>
 8    1  0.1798472E-005  0.1835757E+03  0.7546771E-02  0.1067602E+00
        -11   -1    0    0    0    0  0.00000000000E+00  0.00000000000E+00  0.18250000000E+03  0.18250000000E+03  0.00000000000E+00 0.  1.
         11   -1    0    0    0    0 -0.00000000000E+00 -0.00000000000E+00 -0.18250000000E+03  0.18250000000E+03  0.00000000000E+00 0. -1.
         23    2    1    2    0    0 -0.97507555913E+02 -0.71288348445E+02 -0.10033496767E+03  0.18357572261E+03  0.95095678722E+02 0.  0.
         23    2    1    2    0    0  0.97507555913E+02  0.71288348445E+02  0.10033496767E+03  0.18142427739E+03  0.90873046631E+02 0.  0.
        -11    1    4    4    0    0  0.38941933877E+02  0.40873017771E+02  0.10068356246E+03  0.11543074783E+03  0.00000000000E+00 0.  1.
         11    1    4    4    0    0  0.58565622036E+02  0.30415330674E+02 -0.34859479187E+00  0.65993529553E+02  0.00000000000E+00 0. -1.
        -15    1    3    3    0    0 -0.75577481411E+02  0.38079454375E+00 -0.68884472328E+02  0.10227574961E+03  0.17770000000E+01 0.  1.
         15    1    3    3    0    0 -0.21930074502E+02 -0.71669142989E+02 -0.31450495341E+02  0.81299973005E+02  0.17770000000E+01 0. -1.
</event>
<event>
 8    1  0.1798472E-005  0.1828872E+03  0.7546771E-02  0.1068147E+00
        -11   -1    0    0    0    0  0.00000000000E+00  0.00000000000E+00  0.18250000000E+03  0.18250000000E+03  0.00000000000E+00 0.  1.
         11   -1    0    0    0    0 -0.00000000000E+00 -0.00000000000E+00 -0.18250000000E+03  0.18250000000E+03  0.00000000000E+00 0. -1.
         23    2    1    2    0    0 -0.15077675626E+03 -0.63755852744E+01  0.48892721233E+02  0.18288723874E+03  0.91010799293E+02 0.  0.
         23    2    1    2    0    0  0.15077675626E+03  0.63755852744E+01 -0.48892721233E+02  0.18211276126E+03  0.89444291665E+02 0.  0.
        -11    1    4    4    0    0  0.35845820764E+02  0.39566637893E+02 -0.14156279690E+01  0.53408292455E+02  0.00000000000E+00 0.  1.
         11    1    4    4    0    0  0.11493093549E+03 -0.33191052618E+02 -0.47477093264E+02  0.12870446881E+03  0.00000000000E+00 0. -1.
        -15    1    3    3    0    0 -0.13837735712E+03 -0.23918958074E+02  0.66182619714E+02  0.15525368401E+03  0.17770000000E+01 0.  1.
         15    1    3    3    0    0 -0.12399399141E+02  0.17543372799E+02 -0.17289898482E+02  0.27633554725E+02  0.17770000000E+01 0. -1.
</event>
<event>
 7    1  0.1798472E-005  0.1936864E+03  0.7546771E-02  0.1059883E+00
        -11   -1    0    0    0    0  0.00000000000E+00  0.00000000000E+00  0.18250000000E+03  0.18250000000E+03  0.00000000000E+00 0.  1.
         11   -1    0    0    0    0 -0.00000000000E+00 -0.00000000000E+00 -0.18250000000E+03  0.18250000000E+03  0.00000000000E+00 0. -1.
         23    2    1    2    0    0 -0.11907935629E+03  0.60057346895E+02 -0.56670924286E+02  0.17131355836E+03  0.91378135293E+02 0.  0.
        -11    1    3    3    0    0 -0.80617510644E+02  0.76236294691E+02 -0.14346467100E+02  0.11187929553E+03  0.00000000000E+00 0.  1.
         11    1    3    3    0    0 -0.38461845643E+02 -0.16178947796E+02 -0.42324457186E+02  0.59434262830E+02  0.00000000000E+00 0. -1.
        -15    1    1    2    0    0  0.31606161308E+02  0.35709404330E+02 -0.85773505413E+01  0.48485458248E+02  0.17770000000E+01 0.  1.
         15    1    1    2    0    0  0.87473194980E+02 -0.95766751225E+02  0.65248274827E+02  0.14520098339E+03  0.17770000000E+01 0. -1.
</event>
<event>
 8    1  0.1798472E-005  0.1834738E+03  0.7546771E-02  0.1067682E+00
        -11   -1    0    0    0    0  0.00000000000E+00  0.00000000000E+00  0.18250000000E+03  0.18250000000E+03  0.00000000000E+00 0.  1.
         11   -1    0    0    0    0 -0.00000000000E+00 -0.00000000000E+00 -0.18250000000E+03  0.18250000000E+03  0.00000000000E+00 0.  1.
         23    2    1    2    0    0  0.34898063205E+02 -0.19182393846E+02 -0.15457713450E+03  0.18347376623E+03  0.90458240848E+02 0.  0.
         23    2    1    2    0    0 -0.34898063205E+02  0.19182393846E+02  0.15457713450E+03  0.18152623377E+03  0.86439828709E+02 0.  0.
        -11    1    4    4    0    0 -0.52460402135E+02 -0.14544386880E+01  0.14250345996E+03  0.15185995286E+03  0.00000000000E+00 0.  1.
         11    1    4    4    0    0  0.17562338931E+02  0.20636832534E+02  0.12073674541E+02  0.29666280904E+02  0.00000000000E+00 0.  1.
        -15    1    3    3    0    0  0.48681353012E+02 -0.37995745988E+02 -0.14604848895E+03  0.15857764564E+03  0.17770000000E+01 0.  1.
         15    1    3    3    0    0 -0.13783289807E+02  0.18813352141E+02 -0.85286455518E+01  0.24896120594E+02  0.17770000000E+01 0. -1.
</event>
