<event>
 8    1  0.9532337E-006  0.5001575E+03  0.7546771E-02  0.9399457E-01
        -11   -1    0    0    0    0  0.00000000000E+00  0.00000000000E+00  0.50000000000E+03  0.50000000000E+03  0.00000000000E+00 0.  1.
         11   -1    0    0    0    0 -0.00000000000E+00 -0.00000000000E+00 -0.50000000000E+03  0.50000000000E+03  0.00000000000E+00 0. -1.
         23    2    1    2    0    0 -0.36501116582E+03 -0.14854991787E+03 -0.29410773030E+03  0.49984251897E+03  0.89682537223E+02 0.  0.
         23    2    1    2    0    0  0.36501116582E+03  0.14854991787E+03  0.29410773030E+03  0.50015748103E+03  0.91421657913E+02 0.  0.
        -11    1    4    4    0    0  0.44728665292E+02  0.23141537766E+02  0.45882111720E+01  0.50569120525E+02  0.00000000000E+00 0. -1.
         11    1    4    4    0    0  0.32028250053E+03  0.12540838010E+03  0.28951951913E+03  0.44958836050E+03  0.00000000000E+00 0.  1.
        -15    1    3    3    0    0 -0.42647556249E+02  0.11370167334E+02 -0.36171504529E+02  0.57093171466E+02  0.17770000000E+01 0.  1.
         15    1    3    3    0    0 -0.32236360957E+03 -0.15992008520E+03 -0.25793622577E+03  0.44274934751E+03  0.17770000000E+01 0. -1.
</event>
<event>
 8    1  0.9532337E-006  0.5000945E+03  0.7546771E-02  0.9399598E-01
        -11   -1    0    0    0    0  0.00000000000E+00  0.00000000000E+00  0.50000000000E+03  0.50000000000E+03  0.00000000000E+00 0. -1.
         11   -1    0    0    0    0 -0.00000000000E+00 -0.00000000000E+00 -0.50000000000E+03  0.50000000000E+03  0.00000000000E+00 0.  1.
         23    2    1    2    0    0 -0.20391848162E+03  0.89700168547E+02 -0.43831871355E+03  0.49990552938E+03  0.90296047933E+02 0.  0.
         23    2    1    2    0    0  0.20391848162E+03 -0.89700168547E+02  0.43831871355E+03  0.50009447062E+03  0.91336288017E+02 0.  0.
        -11    1    4    4    0    0  0.14478437665E+02 -0.72980437640E+01  0.77443473699E+00  0.16232262602E+02  0.00000000000E+00 0.  1.
         11    1    4    4    0    0  0.18944004396E+03 -0.82402124783E+02  0.43754427881E+03  0.48386220802E+03  0.00000000000E+00 0. -1.
        -15    1    3    3    0    0 -0.16718030234E+03  0.99525116157E+02 -0.40500127269E+03  0.44931469022E+03  0.17770000000E+01 0.  1.
         15    1    3    3    0    0 -0.36738179284E+02 -0.98249476108E+01 -0.33317440860E+02  0.50590839162E+02  0.17770000000E+01 0. -1.
</event>
<event>
 8    1  0.9532337E-006  0.5004677E+03  0.7546771E-02  0.9398764E-01
        -11   -1    0    0    0    0  0.00000000000E+00  0.00000000000E+00  0.50000000000E+03  0.50000000000E+03  0.00000000000E+00 0. -1.
         11   -1    0    0    0    0 -0.00000000000E+00 -0.00000000000E+00 -0.50000000000E+03  0.50000000000E+03  0.00000000000E+00 0.  1.
         23    2    1    2    0    0 -0.16109685237E+03 -0.63546558171E+02 -0.46021821917E+03  0.50046769882E+03  0.93149060106E+02 0.  0.
         23    2    1    2    0    0  0.16109685237E+03  0.63546558171E+02  0.46021821917E+03  0.49953230118E+03  0.87984940567E+02 0.  0.
        -11    1    4    4    0    0  0.32919838357E+02  0.31931841589E+00  0.24685463847E+02  0.41148388146E+02  0.00000000000E+00 0.  1.
         11    1    4    4    0    0  0.12817701401E+03  0.63227239755E+02  0.43553275533E+03  0.45838391304E+03  0.00000000000E+00 0. -1.
        -15    1    3    3    0    0 -0.38404872385E+02  0.70323537135E+01 -0.35567526995E+02  0.52845008536E+02  0.17770000000E+01 0. -1.
         15    1    3    3    0    0 -0.12269197999E+03 -0.70578911884E+02 -0.42465069218E+03  0.44762269028E+03  0.17770000000E+01 0.  1.
</event>
<event>
 8    1  0.9532337E-006  0.5004658E+03  0.7546771E-02  0.9398768E-01
        -11   -1    0    0    0    0  0.00000000000E+00  0.00000000000E+00  0.50000000000E+03  0.50000000000E+03  0.00000000000E+00 0. -1.
         11   -1    0    0    0    0 -0.00000000000E+00 -0.00000000000E+00 -0.50000000000E+03  0.50000000000E+03  0.00000000000E+00 0.  1.
         23    2    1    2    0    0 -0.12189046350E+03 -0.89418192684E+02 -0.46846734111E+03  0.50046581630E+03  0.90285576471E+02 0.  0.
         23    2    1    2    0    0  0.12189046350E+03  0.89418192684E+02  0.46846734111E+03  0.49953418370E+03  0.84969716506E+02 0.  0.
        -11    1    4    4    0    0  0.11596204469E+03  0.82469087701E+02  0.46926492662E+03  0.49036508602E+03  0.00000000000E+00 0. -1.
         11    1    4    4    0    0  0.59284188056E+01  0.69491049832E+01 -0.79758550681E+00  0.91690976787E+01  0.00000000000E+00 0.  1.
        -15    1    3    3    0    0 -0.13084350795E+03 -0.97854675721E+02 -0.44168440716E+03  0.47093931073E+03  0.17770000000E+01 0.  1.
         15    1    3    3    0    0  0.89530444509E+01  0.84364830370E+01 -0.26782933954E+02  0.29526505569E+02  0.17770000000E+01 0. -1.
</event>
<event>
 8    1  0.9532337E-006  0.5003204E+03  0.7546771E-02  0.9399093E-01
        -11   -1    0    0    0    0  0.00000000000E+00  0.00000000000E+00  0.50000000000E+03  0.50000000000E+03  0.00000000000E+00 0.  1.
         11   -1    0    0    0    0 -0.00000000000E+00 -0.00000000000E+00 -0.50000000000E+03  0.50000000000E+03  0.00000000000E+00 0. -1.
         23    2    1    2    0    0  0.10574418367E+02 -0.61951081326E+02 -0.48754258309E+03  0.50032037021E+03  0.93128662163E+02 0.  0.
         23    2    1    2    0    0 -0.10574418367E+02  0.61951081326E+02  0.48754258309E+03  0.49967962979E+03  0.89622582549E+02 0.  0.
        -11    1    4    4    0    0 -0.25047461600E+02  0.16106062624E+02  0.38794425854E+03  0.38908550258E+03  0.00000000000E+00 0.  1.
         11    1    4    4    0    0  0.14473043233E+02  0.45845018702E+02  0.99598324550E+02  0.11059412721E+03  0.00000000000E+00 0. -1.
        -15    1    3    3    0    0 -0.47920325382E+01  0.17714146780E+02 -0.27074768625E+02  0.32755997879E+02  0.17770000000E+01 0.  1.
         15    1    3    3    0    0  0.15366450906E+02 -0.79665228106E+02 -0.46046781447E+03  0.46756437233E+03  0.17770000000E+01 0. -1.
</event>
<event>
 8    1  0.9532337E-006  0.5002076E+03  0.7546771E-02  0.9399345E-01
        -11   -1    0    0    0    0  0.00000000000E+00  0.00000000000E+00  0.50000000000E+03  0.50000000000E+03  0.00000000000E+00 0.  1.
         11   -1    0    0    0    0 -0.00000000000E+00 -0.00000000000E+00 -0.50000000000E+03  0.50000000000E+03  0.00000000000E+00 0. -1.
         23    2    1    2    0    0 -0.20803445501E+02 -0.20926456424E+02 -0.49100413126E+03  0.49979244967E+03  0.88525340491E+02 0.  0.
         23    2    1    2    0    0  0.20803445501E+02  0.20926456424E+02  0.49100413126E+03  0.50020755033E+03  0.90839620005E+02 0.  0.
        -11    1    4    4    0    0 -0.21627788927E+02 -0.17958073734E+02  0.72410250491E+02  0.77675594895E+02  0.00000000000E+00 0. -1.
         11    1    4    4    0    0  0.42431234428E+02  0.38884530158E+02  0.41859388077E+03  0.42253195543E+03  0.00000000000E+00 0.  1.
        -15    1    3    3    0    0 -0.21914235208E+02  0.30469392560E+02 -0.28487101787E+03  0.28733825387E+03  0.17770000000E+01 0. -1.
         15    1    3    3    0    0  0.11107897062E+01 -0.51395848984E+02 -0.20613311339E+03  0.21245419580E+03  0.17770000000E+01 0.  1.
</event>
<event>
 8    1  0.9532337E-006  0.5029755E+03  0.7546771E-02  0.9393176E-01
        -11   -1    0    0    0    0  0.00000000000E+00  0.00000000000E+00  0.50000000000E+03  0.50000000000E+03  0.00000000000E+00 0.  1.
         11   -1    0    0    0    0 -0.00000000000E+00 -0.00000000000E+00 -0.50000000000E+03  0.50000000000E+03  0.00000000000E+00 0. -1.
         23    2    1    2    0    0  0.12562931404E+03  0.41546878356E+02 -0.47039033636E+03  0.49702446634E+03  0.90870148840E+02 0.  0.
         23    2    1    2    0    0 -0.12562931404E+03 -0.41546878356E+02  0.47039033636E+03  0.50297553366E+03  0.11919920832E+03 0.  0.
        -11    1    4    4    0    0 -0.12120119836E+03 -0.50925429376E+02  0.47407760903E+03  0.49196819940E+03  0.00000000000E+00 0.  1.
         11    1    4    4    0    0 -0.44281156887E+01  0.93785510194E+01 -0.36872726613E+01  0.11007334257E+02  0.00000000000E+00 0. -1.
        -15    1    3    3    0    0  0.43569917043E+02  0.50837215580E+02 -0.12411895201E+03  0.14103698854E+03  0.17770000000E+01 0.  1.
         15    1    3    3    0    0  0.82059397001E+02 -0.92903372239E+01 -0.34627138435E+03  0.35598747780E+03  0.17770000000E+01 0. -1.
</event>
<event>
 7    1  0.9532337E-006  0.5126819E+03  0.7546771E-02  0.9371872E-01
        -11   -1    0    0    0    0  0.00000000000E+00  0.00000000000E+00  0.50000000000E+03  0.50000000000E+03  0.00000000000E+00 0.  1.
         11   -1    0    0    0    0 -0.00000000000E+00 -0.00000000000E+00 -0.50000000000E+03  0.50000000000E+03  0.00000000000E+00 0. -1.
         23    2    1    2    0    0  0.21078175951E+03  0.29747256821E+03  0.31066437614E+03  0.48731813753E+03  0.89709161130E+02 0.  0.
        -11    1    1    2    0    0 -0.16405393438E+03 -0.97700280526E+02 -0.89073359478E+02  0.21069670517E+03  0.00000000000E+00 0.  1.
         11    1    1    2    0    0 -0.46727825130E+02 -0.19977228768E+03 -0.22159101666E+03  0.30198515730E+03  0.00000000000E+00 0. -1.
        -15    1    3    3    0    0  0.50518286432E+02  0.14614765049E+03  0.11723735637E+03  0.19405923958E+03  0.17770000000E+01 0.  1.
         15    1    3    3    0    0  0.16026347308E+03  0.15132491771E+03  0.19342701976E+03  0.29325889795E+03  0.17770000000E+01 0. -1.
</event>
<event>
 8    1  0.9532337E-006  0.5022166E+03  0.7546771E-02  0.9394864E-01
        -11   -1    0    0    0    0  0.00000000000E+00  0.00000000000E+00  0.50000000000E+03  0.50000000000E+03  0.00000000000E+00 0. -1.
         11   -1    0    0    0    0 -0.00000000000E+00 -0.00000000000E+00 -0.50000000000E+03  0.50000000000E+03  0.00000000000E+00 0.  1.
         23    2    1    2    0    0 -0.14580698682E+02 -0.11376450864E+03  0.48061159982E+03  0.49778342564E+03  0.60381029830E+02 0.  0.
         23    2    1    2    0    0  0.14580698682E+02  0.11376450864E+03 -0.48061159982E+03  0.50221657436E+03  0.89883354820E+02 0.  0.
        -11    1    4    4    0    0  0.36667070510E+02  0.10972155627E+02 -0.92241019603E+02  0.99866250337E+02  0.00000000000E+00 0. -1.
         11    1    4    4    0    0 -0.22086371827E+02  0.10279235302E+03 -0.38837058022E+03  0.40235032402E+03  0.00000000000E+00 0.  1.
        -15    1    3    3    0    0 -0.16148370039E+02 -0.10907084462E+03  0.47998350772E+03  0.49248811601E+03  0.17770000000E+01 0. -1.
         15    1    3    3    0    0  0.15676713564E+01 -0.46936640211E+01  0.62809210217E+00  0.52953096334E+01  0.17770000000E+01 0. -1.
</event>
<event>
 7    1  0.9532337E-006  0.5041809E+03  0.7546771E-02  0.9390503E-01
        -11   -1    0    0    0    0  0.00000000000E+00  0.00000000000E+00  0.50000000000E+03  0.50000000000E+03  0.00000000000E+00 0.  1.
         11   -1    0    0    0    0 -0.00000000000E+00 -0.00000000000E+00 -0.50000000000E+03  0.50000000000E+03  0.00000000000E+00 0. -1.
         23    2    1    2    0    0  0.59954178189E+02  0.50255221598E+02  0.48108691851E+03  0.49581905132E+03  0.90949533868E+02 0.  0.
        -11    1    3    3    0    0  0.69008002582E+02  0.61700869612E+02  0.46489275655E+03  0.47401938443E+03  0.00000000000E+00 0.  1.
         11    1    3    3    0    0 -0.90538243929E+01 -0.11445648014E+02  0.16194161963E+02  0.21799666885E+02  0.00000000000E+00 0. -1.
        -15    1    1    2    0    0  0.21711861141E+02  0.29379104004E+02 -0.10626318598E+03  0.11238131112E+03  0.17770000000E+01 0.  1.
         15    1    1    2    0    0 -0.81666039330E+02 -0.79634325602E+02 -0.37482373253E+03  0.39179963756E+03  0.17770000000E+01 0. -1.
</event>
<event>
 7    1  0.9532337E-006  0.5062448E+03  0.7546771E-02  0.9385944E-01
        -11   -1    0    0    0    0  0.00000000000E+00  0.00000000000E+00  0.50000000000E+03  0.50000000000E+03  0.00000000000E+00 0.  1.
         11   -1    0    0    0    0 -0.00000000000E+00 -0.00000000000E+00 -0.50000000000E+03  0.50000000000E+03  0.00000000000E+00 0. -1.
         23    2    1    2    0    0 -0.12635472722E+02 -0.85232617053E+00 -0.48186497445E+03  0.49375519486E+03  0.10695773568E+03 0.  0.
        -11    1    1    2    0    0  0.69326876173E+02 -0.76907327401E+00  0.40404961567E+03  0.40995475258E+03  0.00000000000E+00 0.  1.
         11    1    1    2    0    0 -0.56691403451E+02  0.16213994445E+01  0.77815358775E+02  0.96290052563E+02  0.00000000000E+00 0. -1.
        -15    1    3    3    0    0  0.92394487703E+01  0.14099016355E+02 -0.73124286647E+01  0.18460200913E+02  0.17770000000E+01 0.  1.
         15    1    3    3    0    0 -0.21874921493E+02 -0.14951342526E+02 -0.47455254578E+03  0.47529499395E+03  0.17770000000E+01 0. -1.
</event>
<event>
 8    1  0.9532337E-006  0.5002102E+03  0.7546771E-02  0.9399339E-01
        -11   -1    0    0    0    0  0.00000000000E+00  0.00000000000E+00  0.50000000000E+03  0.50000000000E+03  0.00000000000E+00 0.  1.
         11   -1    0    0    0    0 -0.00000000000E+00 -0.00000000000E+00 -0.50000000000E+03  0.50000000000E+03  0.00000000000E+00 0. -1.
         23    2    1    2    0    0 -0.17639214775E+03 -0.84816667396E+02  0.45082067408E+03  0.50021024299E+03  0.93074970622E+02 0.  0.
         23    2    1    2    0    0  0.17639214775E+03  0.84816667396E+02 -0.45082067408E+03  0.49978975701E+03  0.90788017811E+02 0.  0.
        -11    1    4    4    0    0  0.49021275534E+02  0.20471874681E+01 -0.45400303697E+02  0.66846570647E+02  0.00000000000E+00 0.  1.
         11    1    4    4    0    0  0.12737087222E+03  0.82769479928E+02 -0.40542037038E+03  0.43294318636E+03  0.00000000000E+00 0. -1.
        -15    1    3    3    0    0 -0.14180369669E+03 -0.92978342262E+02  0.29397001133E+03  0.33937410894E+03  0.17770000000E+01 0.  1.
         15    1    3    3    0    0 -0.34588451060E+02  0.81616748653E+01  0.15685066275E+03  0.16083613405E+03  0.17770000000E+01 0. -1.
</event>
<event>
 8    1  0.9532337E-006  0.5000856E+03  0.7546771E-02  0.9399618E-01
        -11   -1    0    0    0    0  0.00000000000E+00  0.00000000000E+00  0.50000000000E+03  0.50000000000E+03  0.00000000000E+00 0.  1.
         11   -1    0    0    0    0 -0.00000000000E+00 -0.00000000000E+00 -0.50000000000E+03  0.50000000000E+03  0.00000000000E+00 0. -1.
         23    2    1    2    0    0 -0.21475649287E+03  0.19639541265E+03  0.39625373328E+03  0.49991444185E+03  0.90586525972E+02 0.  0.
         23    2    1    2    0    0  0.21475649287E+03 -0.19639541265E+03 -0.39625373328E+03  0.50008555815E+03  0.91526143715E+02 0.  0.
        -11    1    4    4    0    0  0.10390754895E+03 -0.14743443770E+03 -0.27327932010E+03  0.32743744279E+03  0.00000000000E+00 0. -1.
         11    1    4    4    0    0  0.11084894392E+03 -0.48960974956E+02 -0.12297441318E+03  0.17264811536E+03  0.00000000000E+00 0.  1.
        -15    1    3    3    0    0 -0.14367320369E+03  0.70430155555E+02  0.20097081893E+03  0.25689457772E+03  0.17770000000E+01 0. -1.
         15    1    3    3    0    0 -0.71083289189E+02  0.12596525710E+03  0.19528291435E+03  0.24301986414E+03  0.17770000000E+01 0.  1.
</event>
<event>
 8    1  0.9532337E-006  0.5001429E+03  0.7546771E-02  0.9399490E-01
        -11   -1    0    0    0    0  0.00000000000E+00  0.00000000000E+00  0.50000000000E+03  0.50000000000E+03  0.00000000000E+00 0. -1.
         11   -1    0    0    0    0 -0.00000000000E+00 -0.00000000000E+00 -0.50000000000E+03  0.50000000000E+03  0.00000000000E+00 0.  1.
         23    2    1    2    0    0 -0.11287194649E+02 -0.84869596641E+01 -0.49083419462E+03  0.50014294275E+03  0.95001722774E+02 0.  0.
         23    2    1    2    0    0  0.11287194649E+02  0.84869596641E+01  0.49083419462E+03  0.49985705725E+03  0.93484981855E+02 0.  0.
        -11    1    4    4    0    0  0.14675896175E+02 -0.28456739383E+01  0.81472441099E+01  0.17025198246E+02  0.00000000000E+00 0.  1.
         11    1    4    4    0    0 -0.33887015262E+01  0.11332633602E+02  0.48268695051E+03  0.48283185901E+03  0.00000000000E+00 0. -1.
        -15    1    3    3    0    0  0.38954234087E+02  0.10980879892E+02 -0.16641897661E+03  0.17127885329E+03  0.17770000000E+01 0. -1.
         15    1    3    3    0    0 -0.50241428736E+02 -0.19467839557E+02 -0.32441521800E+03  0.32886408946E+03  0.17770000000E+01 0.  1.
</event>
<event>
 8    1  0.9532337E-006  0.5000112E+03  0.7546771E-02  0.9399785E-01
        -11   -1    0    0    0    0  0.00000000000E+00  0.00000000000E+00  0.50000000000E+03  0.50000000000E+03  0.00000000000E+00 0. -1.
         11   -1    0    0    0    0 -0.00000000000E+00 -0.00000000000E+00 -0.50000000000E+03  0.50000000000E+03  0.00000000000E+00 0.  1.
         23    2    1    2    0    0 -0.16628294080E+02 -0.32383232855E+01 -0.49120733009E+03  0.49998879764E+03  0.91745134624E+02 0.  0.
         23    2    1    2    0    0  0.16628294080E+02  0.32383232855E+01  0.49120733009E+03  0.50001120236E+03  0.91867156497E+02 0.  0.
        -11    1    4    4    0    0  0.17668754764E+02  0.31955466082E+02  0.81603365606E+02  0.89400480902E+02  0.00000000000E+00 0.  1.
         11    1    4    4    0    0 -0.10404606845E+01 -0.28717142796E+02  0.40960396449E+03  0.41061072146E+03  0.00000000000E+00 0. -1.
        -15    1    3    3    0    0 -0.39386625507E+02  0.25959084590E+02 -0.37637610181E+03  0.37932480552E+03  0.17770000000E+01 0.  1.
         15    1    3    3    0    0  0.22758331428E+02 -0.29197407876E+02 -0.11483122829E+03  0.12066399212E+03  0.17770000000E+01 0. -1.
</event>
<event>
 8    1  0.9532337E-006  0.5026622E+03  0.7546771E-02  0.9393873E-01
        -11   -1    0    0    0    0  0.00000000000E+00  0.00000000000E+00  0.50000000000E+03  0.50000000000E+03  0.00000000000E+00 0.  1.
         11   -1    0    0    0    0 -0.00000000000E+00 -0.00000000000E+00 -0.50000000000E+03  0.50000000000E+03  0.00000000000E+00 0. -1.
         23    2    1    2    0    0 -0.45873506043E+02  0.83572806417E+02 -0.47985091430E+03  0.50266215419E+03  0.11542767767E+03 0.  0.
         23    2    1    2    0    0  0.45873506043E+02 -0.83572806417E+02  0.47985091430E+03  0.49733784581E+03  0.89438472640E+02 0.  0.
        -11    1    4    4    0    0  0.61866999743E+02 -0.85391879330E+02  0.45921563310E+03  0.47116695172E+03  0.00000000000E+00 0.  1.
         11    1    4    4    0    0 -0.15993493700E+02  0.18190729130E+01  0.20635281205E+02  0.26170894089E+02  0.00000000000E+00 0. -1.
        -15    1    3    3    0    0 -0.18207767255E+02  0.17987855413E+02 -0.10143779503E+02  0.27588760798E+02  0.17770000000E+01 0.  1.
         15    1    3    3    0    0 -0.27665738788E+02  0.65584951004E+02 -0.46970713480E+03  0.47507339339E+03  0.17770000000E+01 0. -1.
</event>
<event>
 8    1  0.9532337E-006  0.5003417E+03  0.7546771E-02  0.9399045E-01
        -11   -1    0    0    0    0  0.00000000000E+00  0.00000000000E+00  0.50000000000E+03  0.50000000000E+03  0.00000000000E+00 0.  1.
         11   -1    0    0    0    0 -0.00000000000E+00 -0.00000000000E+00 -0.50000000000E+03  0.50000000000E+03  0.00000000000E+00 0. -1.
         23    2    1    2    0    0 -0.26556239512E+02 -0.20692287460E+01 -0.49080529287E+03  0.49965831794E+03  0.89772398925E+02 0.  0.
         23    2    1    2    0    0  0.26556239512E+02  0.20692287460E+01  0.49080529287E+03  0.50034168206E+03  0.93501057414E+02 0.  0.
        -11    1    4    4    0    0  0.17000708483E+02 -0.34639672633E+02  0.92381671614E+02  0.10011645349E+03  0.00000000000E+00 0. -1.
         11    1    4    4    0    0  0.95555310297E+01  0.36708901379E+02  0.39842362126E+03  0.40022522858E+03  0.00000000000E+00 0.  1.
        -15    1    3    3    0    0 -0.27594210649E+02  0.14075541719E+02 -0.52015230466E+02  0.60566519344E+02  0.17770000000E+01 0.  1.
         15    1    3    3    0    0  0.10379711361E+01 -0.16144770465E+02 -0.43879006240E+03  0.43909179859E+03  0.17770000000E+01 0. -1.
</event>
<event>
 8    1  0.9532337E-006  0.5008236E+03  0.7546771E-02  0.9397969E-01
        -11   -1    0    0    0    0  0.00000000000E+00  0.00000000000E+00  0.50000000000E+03  0.50000000000E+03  0.00000000000E+00 0.  1.
         11   -1    0    0    0    0 -0.00000000000E+00 -0.00000000000E+00 -0.50000000000E+03  0.50000000000E+03  0.00000000000E+00 0. -1.
         23    2    1    2    0    0  0.19777376217E+02 -0.46341605559E+03 -0.16431878888E+03  0.50082356225E+03  0.93155734878E+02 0.  0.
         23    2    1    2    0    0 -0.19777376217E+02  0.46341605559E+03  0.16431878888E+03  0.49917643775E+03  0.83850262011E+02 0.  0.
        -11    1    4    4    0    0 -0.60477527476E+01  0.41172434631E+03  0.11778741532E+03  0.42828423723E+03  0.00000000000E+00 0. -1.
         11    1    4    4    0    0 -0.13729623469E+02  0.51691709282E+02  0.46531373554E+02  0.70892200516E+02  0.00000000000E+00 0.  1.
        -15    1    3    3    0    0 -0.18523344410E+02 -0.11988043447E+03 -0.83689674949E+01  0.12160440043E+03  0.17770000000E+01 0. -1.
         15    1    3    3    0    0  0.38300720626E+02 -0.34353562112E+03 -0.15594982138E+03  0.37921916182E+03  0.17770000000E+01 0.  1.
</event>
<event>
 8    1  0.9532337E-006  0.5004681E+03  0.7546771E-02  0.9398763E-01
        -11   -1    0    0    0    0  0.00000000000E+00  0.00000000000E+00  0.50000000000E+03  0.50000000000E+03  0.00000000000E+00 0.  1.
         11   -1    0    0    0    0 -0.00000000000E+00 -0.00000000000E+00 -0.50000000000E+03  0.50000000000E+03  0.00000000000E+00 0. -1.
         23    2    1    2    0    0 -0.29557856875E+03 -0.61625567037E+02 -0.38741356116E+03  0.50046814175E+03  0.95993191027E+02 0.  0.
         23    2    1    2    0    0  0.29557856875E+03  0.61625567037E+02  0.38741356116E+03  0.49953185825E+03  0.90985763832E+02 0.  0.
        -11    1    4    4    0    0  0.14242193389E+03  0.45822120863E+02  0.12355214900E+03  0.19403300630E+03  0.00000000000E+00 0. -1.
         11    1    4    4    0    0  0.15315663486E+03  0.15803446174E+02  0.26386141216E+03  0.30549885195E+03  0.00000000000E+00 0.  1.
        -15    1    3    3    0    0 -0.62335397231E+02 -0.11108262809E+02 -0.28520023014E+02  0.69466860389E+02  0.17770000000E+01 0.  1.
         15    1    3    3    0    0 -0.23324317151E+03 -0.50517304228E+02 -0.35889353815E+03  0.43100128136E+03  0.17770000000E+01 0. -1.
</event>
<event>
 8    1  0.9532337E-006  0.5000268E+03  0.7546771E-02  0.9399750E-01
        -11   -1    0    0    0    0  0.00000000000E+00  0.00000000000E+00  0.50000000000E+03  0.50000000000E+03  0.00000000000E+00 0.  1.
         11   -1    0    0    0    0 -0.00000000000E+00 -0.00000000000E+00 -0.50000000000E+03  0.50000000000E+03  0.00000000000E+00 0. -1.
         23    2    1    2    0    0 -0.56036050430E+02 -0.33650506527E+02 -0.48711335891E+03  0.49997322603E+03  0.91768223160E+02 0.  0.
         23    2    1    2    0    0  0.56036050430E+02  0.33650506527E+02  0.48711335891E+03  0.50002677397E+03  0.92059517297E+02 0.  0.
        -11    1    4    4    0    0  0.21147169901E+02  0.60504436798E+02  0.35586768212E+03  0.36159341372E+03  0.00000000000E+00 0.  1.
         11    1    4    4    0    0  0.34888880529E+02 -0.26853930271E+02  0.13124567678E+03  0.13843336025E+03  0.00000000000E+00 0. -1.
        -15    1    3    3    0    0 -0.53448218076E+02  0.13033425548E+02 -0.15300736695E+03  0.16260687030E+03  0.17770000000E+01 0.  1.
         15    1    3    3    0    0 -0.25878323532E+01 -0.46683932075E+02 -0.33410599196E+03  0.33736635573E+03  0.17770000000E+01 0. -1.
</event>
<event>
 8    1  0.9532337E-006  0.5008918E+03  0.7546771E-02  0.9397816E-01
        -11   -1    0    0    0    0  0.00000000000E+00  0.00000000000E+00  0.50000000000E+03  0.50000000000E+03  0.00000000000E+00 0.  1.
         11   -1    0    0    0    0 -0.00000000000E+00 -0.00000000000E+00 -0.50000000000E+03  0.50000000000E+03  0.00000000000E+00 0. -1.
         23    2    1    2    0    0 -0.11825046862E+03  0.10080521693E+02 -0.47759896377E+03  0.49910820170E+03  0.83207190558E+02 0.  0.
         23    2    1    2    0    0  0.11825046862E+03 -0.10080521693E+02  0.47759896377E+03  0.50089179830E+03  0.93311484665E+02 0.  0.
        -11    1    4    4    0    0  0.91539643048E+02 -0.45660139625E+02  0.27360929172E+03  0.29210682826E+03  0.00000000000E+00 0.  1.
         11    1    4    4    0    0  0.26710825576E+02  0.35579617932E+02  0.20398967205E+03  0.20878497005E+03  0.00000000000E+00 0. -1.
        -15    1    3    3    0    0 -0.11696691950E+03 -0.16607216132E+02 -0.38692892273E+03  0.40456669272E+03  0.17770000000E+01 0. -1.
         15    1    3    3    0    0 -0.12835491260E+01  0.26687737825E+02 -0.90670041032E+02  0.94541508970E+02  0.17770000000E+01 0.  1.
</event>
<event>
 8    1  0.9532337E-006  0.5000811E+03  0.7546771E-02  0.9399628E-01
        -11   -1    0    0    0    0  0.00000000000E+00  0.00000000000E+00  0.50000000000E+03  0.50000000000E+03  0.00000000000E+00 0. -1.
         11   -1    0    0    0    0 -0.00000000000E+00 -0.00000000000E+00 -0.50000000000E+03  0.50000000000E+03  0.00000000000E+00 0. -1.
         23    2    1    2    0    0 -0.97246806304E+01  0.24283572339E+01 -0.49137704555E+03  0.50008108367E+03  0.92353792695E+02 0.  0.
         23    2    1    2    0    0  0.97246806304E+01 -0.24283572339E+01  0.49137704555E+03  0.49991891633E+03  0.91471611314E+02 0.  0.
        -11    1    4    4    0    0  0.34039502572E+02 -0.36266029113E+02  0.29578603744E+03  0.29993881468E+03  0.00000000000E+00 0. -1.
         11    1    4    4    0    0 -0.24314821941E+02  0.33837671879E+02  0.19559100810E+03  0.19998010165E+03  0.00000000000E+00 0. -1.
        -15    1    3    3    0    0  0.75867759981E+01 -0.31639165302E+02 -0.72800474959E+02  0.79760032813E+02  0.17770000000E+01 0.  1.
         15    1    3    3    0    0 -0.17311456628E+02  0.34067522536E+02 -0.41857657059E+03  0.42032105086E+03  0.17770000000E+01 0. -1.
</event>
<event>
 8    1  0.9532337E-006  0.5011744E+03  0.7546771E-02  0.9397186E-01
        -11   -1    0    0    0    0  0.00000000000E+00  0.00000000000E+00  0.50000000000E+03  0.50000000000E+03  0.00000000000E+00 0. -1.
         11   -1    0    0    0    0 -0.00000000000E+00 -0.00000000000E+00 -0.50000000000E+03  0.50000000000E+03  0.00000000000E+00 0.  1.
         23    2    1    2    0    0  0.26052792353E+02 -0.56429105388E+02 -0.48878617302E+03  0.50117440314E+03  0.91656246425E+02 0.  0.
         23    2    1    2    0    0 -0.26052792353E+02  0.56429105388E+02  0.48878617302E+03  0.49882559686E+03  0.77794994822E+02 0.  0.
        -11    1    4    4    0    0 -0.45802527647E+02  0.51890130336E+02  0.44764783056E+03  0.45296692746E+03  0.00000000000E+00 0. -1.
         11    1    4    4    0    0  0.19749735294E+02  0.45389750520E+01  0.41138342460E+02  0.45858669399E+02  0.00000000000E+00 0.  1.
        -15    1    3    3    0    0  0.26768615141E+02 -0.49038523177E+02 -0.49022810563E+03  0.49340458935E+03  0.17770000000E+01 0.  1.
         15    1    3    3    0    0 -0.71582278769E+00 -0.73905822116E+01  0.14419326154E+01  0.77698137917E+01  0.17770000000E+01 0. -1.
</event>
<event>
 8    1  0.9532337E-006  0.5002847E+03  0.7546771E-02  0.9399173E-01
        -11   -1    0    0    0    0  0.00000000000E+00  0.00000000000E+00  0.50000000000E+03  0.50000000000E+03  0.00000000000E+00 0.  1.
         11   -1    0    0    0    0 -0.00000000000E+00 -0.00000000000E+00 -0.50000000000E+03  0.50000000000E+03  0.00000000000E+00 0. -1.
         23    2    1    2    0    0 -0.11082671078E+03 -0.82178918859E+02 -0.47191431889E+03  0.49971534083E+03  0.89310486277E+02 0.  0.
         23    2    1    2    0    0  0.11082671078E+03  0.82178918859E+02  0.47191431889E+03  0.50028465917E+03  0.92442854288E+02 0.  0.
        -11    1    4    4    0    0  0.21179545118E+02  0.72152467745E+02  0.23714431500E+03  0.24878098374E+03  0.00000000000E+00 0. -1.
         11    1    4    4    0    0  0.89647165664E+02  0.10026451114E+02  0.23477000389E+03  0.25150367544E+03  0.00000000000E+00 0.  1.
        -15    1    3    3    0    0 -0.16636049214E+02  0.17171558201E+02 -0.11431004050E+03  0.11679710456E+03  0.17770000000E+01 0.  1.
         15    1    3    3    0    0 -0.94190661568E+02 -0.99350477060E+02 -0.35760427838E+03  0.38291823627E+03  0.17770000000E+01 0. -1.
</event>
<event>
 8    1  0.9532337E-006  0.5000068E+03  0.7546771E-02  0.9399795E-01
        -11   -1    0    0    0    0  0.00000000000E+00  0.00000000000E+00  0.50000000000E+03  0.50000000000E+03  0.00000000000E+00 0. -1.
         11   -1    0    0    0    0 -0.00000000000E+00 -0.00000000000E+00 -0.50000000000E+03  0.50000000000E+03  0.00000000000E+00 0.  1.
         23    2    1    2    0    0 -0.81711714292E+01  0.29649341912E+02 -0.49090741841E+03  0.49999321082E+03  0.89762274338E+02 0.  0.
         23    2    1    2    0    0  0.81711714292E+01 -0.29649341912E+02  0.49090741841E+03  0.50000678918E+03  0.89837877622E+02 0.  0.
        -11    1    4    4    0    0  0.13236661303E+01  0.58765029173E+01 -0.15517476662E+01  0.62203938285E+01  0.00000000000E+00 0.  1.
         11    1    4    4    0    0  0.68475052990E+01 -0.35525844829E+02  0.49245916608E+03  0.49378639535E+03  0.00000000000E+00 0. -1.
        -15    1    3    3    0    0 -0.78144908452E+01 -0.28717325734E+02 -0.88888535082E+02  0.93755428976E+02  0.17770000000E+01 0. -1.
         15    1    3    3    0    0 -0.35668058402E+00  0.58366667646E+02 -0.40201888333E+03  0.40623778184E+03  0.17770000000E+01 0.  1.
</event>
<event>
 8    1  0.9532337E-006  0.5001342E+03  0.7546771E-02  0.9399509E-01
        -11   -1    0    0    0    0  0.00000000000E+00  0.00000000000E+00  0.50000000000E+03  0.50000000000E+03  0.00000000000E+00 0.  1.
         11   -1    0    0    0    0 -0.00000000000E+00 -0.00000000000E+00 -0.50000000000E+03  0.50000000000E+03  0.00000000000E+00 0. -1.
         23    2    1    2    0    0 -0.67930235723E+02  0.27496189968E+02 -0.48622674311E+03  0.49986578890E+03  0.89882166247E+02 0.  0.
         23    2    1    2    0    0  0.67930235723E+02 -0.27496189968E+02  0.48622674311E+03  0.50013421110E+03  0.91363154540E+02 0.  0.
        -11    1    4    4    0    0  0.27000476787E+02 -0.50794934824E+02  0.37441680407E+03  0.37881010324E+03  0.00000000000E+00 0.  1.
         11    1    4    4    0    0  0.40929758936E+02  0.23298744855E+02  0.11180993905E+03  0.12132410786E+03  0.00000000000E+00 0. -1.
        -15    1    3    3    0    0  0.23005807103E+00  0.34633672728E+02 -0.28879964142E+03  0.29087443137E+03  0.17770000000E+01 0.  1.
         15    1    3    3    0    0 -0.68160293794E+02 -0.71374827598E+01 -0.19742710169E+03  0.20899135753E+03  0.17770000000E+01 0. -1.
</event>
<event>
 8    1  0.9532337E-006  0.5001083E+03  0.7546771E-02  0.9399567E-01
        -11   -1    0    0    0    0  0.00000000000E+00  0.00000000000E+00  0.50000000000E+03  0.50000000000E+03  0.00000000000E+00 0.  1.
         11   -1    0    0    0    0 -0.00000000000E+00 -0.00000000000E+00 -0.50000000000E+03  0.50000000000E+03  0.00000000000E+00 0. -1.
         23    2    1    2    0    0 -0.74990197171E+01 -0.28271407297E+02 -0.49108270761E+03  0.50010832161E+03  0.89947761837E+02 0.  0.
         23    2    1    2    0    0  0.74990197171E+01  0.28271407297E+02  0.49108270761E+03  0.49989167839E+03  0.88735317895E+02 0.  0.
        -11    1    4    4    0    0 -0.20036369749E+02 -0.13740091702E+02  0.46350878443E+02  0.52332114090E+02  0.00000000000E+00 0. -1.
         11    1    4    4    0    0  0.27535389466E+02  0.42011498999E+02  0.44473182917E+03  0.44755956430E+03  0.00000000000E+00 0.  1.
        -15    1    3    3    0    0 -0.42434374738E+02  0.37065055330E+01 -0.15719682481E+03  0.16287545488E+03  0.17770000000E+01 0.  1.
         15    1    3    3    0    0  0.34935355021E+02 -0.31977912830E+02 -0.33388588280E+03  0.33723286673E+03  0.17770000000E+01 0. -1.
</event>
<event>
 8    1  0.9532337E-006  0.5001207E+03  0.7546771E-02  0.9399540E-01
        -11   -1    0    0    0    0  0.00000000000E+00  0.00000000000E+00  0.50000000000E+03  0.50000000000E+03  0.00000000000E+00 0. -1.
         11   -1    0    0    0    0 -0.00000000000E+00 -0.00000000000E+00 -0.50000000000E+03  0.50000000000E+03  0.00000000000E+00 0.  1.
         23    2    1    2    0    0 -0.15272899872E+03 -0.25664538954E+02 -0.46628068353E+03  0.50012071887E+03  0.93371526699E+02 0.  0.
         23    2    1    2    0    0  0.15272899872E+03  0.25664538954E+02  0.46628068353E+03  0.49987928113E+03  0.92069562025E+02 0.  0.
        -11    1    4    4    0    0  0.15728241903E+03  0.12369725044E+02  0.45584648793E+03  0.48237619136E+03  0.00000000000E+00 0. -1.
         11    1    4    4    0    0 -0.45534203062E+01  0.13294813910E+02  0.10434195601E+02  0.17503089762E+02  0.00000000000E+00 0.  1.
        -15    1    3    3    0    0 -0.55520715992E+02 -0.55920672982E+02 -0.21502660686E+03  0.22901805815E+03  0.17770000000E+01 0.  1.
         15    1    3    3    0    0 -0.97208282731E+02  0.30256134028E+02 -0.25125407667E+03  0.27110266072E+03  0.17770000000E+01 0. -1.
</event>
<event>
 8    1  0.9532337E-006  0.5002384E+03  0.7546771E-02  0.9399277E-01
        -11   -1    0    0    0    0  0.00000000000E+00  0.00000000000E+00  0.50000000000E+03  0.50000000000E+03  0.00000000000E+00 0. -1.
         11   -1    0    0    0    0 -0.00000000000E+00 -0.00000000000E+00 -0.50000000000E+03  0.50000000000E+03  0.00000000000E+00 0.  1.
         23    2    1    2    0    0 -0.63801348277E+02  0.54433008659E+02  0.48485725773E+03  0.50023836038E+03  0.90101566842E+02 0.  0.
         23    2    1    2    0    0  0.63801348277E+02 -0.54433008659E+02 -0.48485725773E+03  0.49976163962E+03  0.87416083167E+02 0.  0.
        -11    1    4    4    0    0 -0.12332425442E+01  0.21172858019E+02 -0.74523807140E+02  0.77482957058E+02  0.00000000000E+00 0. -1.
         11    1    4    4    0    0  0.65034590821E+02 -0.75605866678E+02 -0.41033345059E+03  0.42227868257E+03  0.00000000000E+00 0.  1.
        -15    1    3    3    0    0 -0.96700901701E+00  0.54657106937E+01 -0.25495330511E+01  0.63613636592E+01  0.17770000000E+01 0.  1.
         15    1    3    3    0    0 -0.62834339260E+02  0.48967297966E+02  0.48740679078E+03  0.49387699672E+03  0.17770000000E+01 0. -1.
</event>
<event>
 8    1  0.9722446E-006  0.5000314E+03  0.7546771E-02  0.9399740E-01
        -11   -1    0    0    0    0  0.00000000000E+00  0.00000000000E+00  0.50000000000E+03  0.50000000000E+03  0.00000000000E+00 0.  1.
         11   -1    0    0    0    0 -0.00000000000E+00 -0.00000000000E+00 -0.50000000000E+03  0.50000000000E+03  0.00000000000E+00 0. -1.
         23    2    1    2    0    0 -0.17655942100E+01 -0.68009635009E+01  0.49153583759E+03  0.49996864868E+03  0.91169071525E+02 0.  0.
         23    2    1    2    0    0  0.17655942100E+01  0.68009635009E+01 -0.49153583759E+03  0.50003135132E+03  0.91512306485E+02 0.  0.
        -11    1    4    4    0    0  0.38561980880E+02 -0.20690231942E+02 -0.29309734771E+03  0.29634636374E+03  0.00000000000E+00 0. -1.
         11    1    4    4    0    0 -0.36796386670E+02  0.27491195443E+02 -0.19843848988E+03  0.20368498757E+03  0.00000000000E+00 0.  1.
        -15    1    3    3    0    0 -0.27663420344E+02  0.27400666425E+02  0.34721973715E+03  0.34940057948E+03  0.17770000000E+01 0.  1.
         15    1    3    3    0    0  0.25897826134E+02 -0.34201629926E+02  0.14431610044E+03  0.15056806920E+03  0.17770000000E+01 0. -1.
</event>
<event>
 8    1  0.9532337E-006  0.5001462E+03  0.7546771E-02  0.9399483E-01
        -11   -1    0    0    0    0  0.00000000000E+00  0.00000000000E+00  0.50000000000E+03  0.50000000000E+03  0.00000000000E+00 0.  1.
         11   -1    0    0    0    0 -0.00000000000E+00 -0.00000000000E+00 -0.50000000000E+03  0.50000000000E+03  0.00000000000E+00 0. -1.
         23    2    1    2    0    0  0.18062808124E+03 -0.21825255889E+03  0.40201925356E+03  0.50014616972E+03  0.90917697170E+02 0.  0.
         23    2    1    2    0    0 -0.18062808124E+03  0.21825255889E+03 -0.40201925356E+03  0.49985383028E+03  0.89295510640E+02 0.  0.
        -11    1    4    4    0    0 -0.15952305481E+03  0.19643053738E+03 -0.39432670152E+03  0.46853613368E+03  0.00000000000E+00 0. -1.
         11    1    4    4    0    0 -0.21105026432E+02  0.21822021513E+02 -0.76925520357E+01  0.31317696602E+02  0.00000000000E+00 0.  1.
        -15    1    3    3    0    0  0.10198544664E+03 -0.84567861331E+02  0.25010746785E+03  0.28303649535E+03  0.17770000000E+01 0.  1.
         15    1    3    3    0    0  0.78642634599E+02 -0.13368469756E+03  0.15191178570E+03  0.21710967437E+03  0.17770000000E+01 0. -1.
</event>
<event>
 8    1  0.9532337E-006  0.5003572E+03  0.7546771E-02  0.9399011E-01
        -11   -1    0    0    0    0  0.00000000000E+00  0.00000000000E+00  0.50000000000E+03  0.50000000000E+03  0.00000000000E+00 0.  1.
         11   -1    0    0    0    0 -0.00000000000E+00 -0.00000000000E+00 -0.50000000000E+03  0.50000000000E+03  0.00000000000E+00 0. -1.
         23    2    1    2    0    0  0.14403648440E+02  0.70761845166E+02 -0.48614132078E+03  0.49964278034E+03  0.89971219586E+02 0.  0.
         23    2    1    2    0    0 -0.14403648440E+02 -0.70761845166E+02  0.48614132078E+03  0.50035721966E+03  0.93857656477E+02 0.  0.
        -11    1    4    4    0    0 -0.50537311917E+02 -0.62926927158E+02  0.35824971034E+03  0.36722836630E+03  0.00000000000E+00 0.  1.
         11    1    4    4    0    0  0.36133663478E+02 -0.78349180073E+01  0.12789161044E+03  0.13312885336E+03  0.00000000000E+00 0. -1.
        -15    1    3    3    0    0  0.20189900361E+02  0.18807471315E+01 -0.20477241183E+02  0.28872901168E+02  0.17770000000E+01 0.  1.
         15    1    3    3    0    0 -0.57862519213E+01  0.68881098034E+02 -0.46566407960E+03  0.47076987917E+03  0.17770000000E+01 0. -1.
</event>
<event>
 8    1  0.9532337E-006  0.5004408E+03  0.7546771E-02  0.9398824E-01
        -11   -1    0    0    0    0  0.00000000000E+00  0.00000000000E+00  0.50000000000E+03  0.50000000000E+03  0.00000000000E+00 0.  1.
         11   -1    0    0    0    0 -0.00000000000E+00 -0.00000000000E+00 -0.50000000000E+03  0.50000000000E+03  0.00000000000E+00 0. -1.
         23    2    1    2    0    0  0.24472412635E+03 -0.26908731887E+03 -0.33042216449E+03  0.50044083622E+03  0.94680201571E+02 0.  0.
         23    2    1    2    0    0 -0.24472412635E+03  0.26908731887E+03  0.33042216449E+03  0.49955916378E+03  0.89903660278E+02 0.  0.
        -11    1    4    4    0    0 -0.75926882958E+02  0.14593227068E+03  0.16569377514E+03  0.23348564475E+03  0.00000000000E+00 0. -1.
         11    1    4    4    0    0 -0.16879724340E+03  0.12315504819E+03  0.16472838936E+03  0.26607351904E+03  0.00000000000E+00 0.  1.
        -15    1    3    3    0    0  0.16481961656E+01 -0.40473812242E+02 -0.22441306906E+02  0.46342378151E+02  0.17770000000E+01 0.  1.
         15    1    3    3    0    0  0.24307593019E+03 -0.22861350663E+03 -0.30798085759E+03  0.45409845807E+03  0.17770000000E+01 0. -1.
</event>
<event>
 8    1  0.9532337E-006  0.5013936E+03  0.7546771E-02  0.9396697E-01
        -11   -1    0    0    0    0  0.00000000000E+00  0.00000000000E+00  0.50000000000E+03  0.50000000000E+03  0.00000000000E+00 0.  1.
         11   -1    0    0    0    0 -0.00000000000E+00 -0.00000000000E+00 -0.50000000000E+03  0.50000000000E+03  0.00000000000E+00 0. -1.
         23    2    1    2    0    0 -0.76578409846E+02  0.53372042950E+02 -0.48113106692E+03  0.50139355875E+03  0.10580911766E+03 0.  0.
         23    2    1    2    0    0  0.76578409846E+02 -0.53372042950E+02  0.48113106692E+03  0.49860644125E+03  0.91697611072E+02 0.  0.
        -11    1    4    4    0    0  0.55342292334E+02 -0.17222762401E+01  0.10847274951E+03  0.12178699825E+03  0.00000000000E+00 0. -1.
         11    1    4    4    0    0  0.21236117512E+02 -0.51649766710E+02  0.37265831741E+03  0.37681944300E+03  0.00000000000E+00 0.  1.
        -15    1    3    3    0    0 -0.37002845356E+02 -0.30097904599E+02 -0.19281098176E+03  0.19863113261E+03  0.17770000000E+01 0.  1.
         15    1    3    3    0    0 -0.39575564490E+02  0.83469947549E+02 -0.28832008516E+03  0.30276242615E+03  0.17770000000E+01 0. -1.
</event>
<event>
 8    1  0.9532337E-006  0.5034407E+03  0.7546771E-02  0.9392144E-01
        -11   -1    0    0    0    0  0.00000000000E+00  0.00000000000E+00  0.50000000000E+03  0.50000000000E+03  0.00000000000E+00 0.  1.
         11   -1    0    0    0    0 -0.00000000000E+00 -0.00000000000E+00 -0.50000000000E+03  0.50000000000E+03  0.00000000000E+00 0. -1.
         23    2    1    2    0    0 -0.21836850295E+03 -0.15713788608E+03  0.40736203414E+03  0.50344067482E+03  0.12301043813E+03 0.  0.
         23    2    1    2    0    0  0.21836850295E+03  0.15713788608E+03 -0.40736203414E+03  0.49655932518E+03  0.90830711998E+02 0.  0.
        -11    1    4    4    0    0  0.52029024576E+01 -0.96620230585E+01 -0.31682686850E+02  0.33529353254E+02  0.00000000000E+00 0.  1.
         11    1    4    4    0    0  0.21316560049E+03  0.16679990914E+03 -0.37567934729E+03  0.46302997192E+03  0.00000000000E+00 0. -1.
        -15    1    3    3    0    0 -0.17980193179E+03 -0.14501351964E+03  0.40057638150E+03  0.46240918103E+03  0.17770000000E+01 0.  1.
         15    1    3    3    0    0 -0.38566571159E+02 -0.12124366435E+02  0.67856526383E+01  0.41031493796E+02  0.17770000000E+01 0. -1.
</event>
<event>
 8    1  0.9532337E-006  0.5001980E+03  0.7546771E-02  0.9399367E-01
        -11   -1    0    0    0    0  0.00000000000E+00  0.00000000000E+00  0.50000000000E+03  0.50000000000E+03  0.00000000000E+00 0. -1.
         11   -1    0    0    0    0 -0.00000000000E+00 -0.00000000000E+00 -0.50000000000E+03  0.50000000000E+03  0.00000000000E+00 0.  1.
         23    2    1    2    0    0 -0.31069974602E+02  0.24301397113E+02 -0.49016642204E+03  0.49980202848E+03  0.89347888375E+02 0.  0.
         23    2    1    2    0    0  0.31069974602E+02 -0.24301397113E+02  0.49016642204E+03  0.50019797152E+03  0.91536813330E+02 0.  0.
        -11    1    4    4    0    0  0.14706424901E+02  0.34200108391E+02  0.14355807009E+03  0.14830659404E+03  0.00000000000E+00 0.  1.
         11    1    4    4    0    0  0.16363549700E+02 -0.58501505503E+02  0.34660835195E+03  0.35189137748E+03  0.00000000000E+00 0. -1.
        -15    1    3    3    0    0  0.29465223420E+02 -0.56021222792E+01 -0.14172383930E+03  0.14487369506E+03  0.17770000000E+01 0.  1.
         15    1    3    3    0    0 -0.60535198022E+02  0.29903519392E+02 -0.34844258273E+03  0.35492833342E+03  0.17770000000E+01 0. -1.
</event>
<event>
 8    1  0.9532337E-006  0.5005243E+03  0.7546771E-02  0.9398637E-01
        -11   -1    0    0    0    0  0.00000000000E+00  0.00000000000E+00  0.50000000000E+03  0.50000000000E+03  0.00000000000E+00 0. -1.
         11   -1    0    0    0    0 -0.00000000000E+00 -0.00000000000E+00 -0.50000000000E+03  0.50000000000E+03  0.00000000000E+00 0.  1.
         23    2    1    2    0    0  0.81096475661E+01  0.73519201575E+02 -0.48558065202E+03  0.50052425361E+03  0.96255490515E+02 0.  0.
         23    2    1    2    0    0 -0.81096475661E+01 -0.73519201575E+02  0.48558065202E+03  0.49947574639E+03  0.90645530672E+02 0.  0.
        -11    1    4    4    0    0 -0.31077407499E+02 -0.79573106643E+02  0.28597046096E+03  0.29845734888E+03  0.00000000000E+00 0. -1.
         11    1    4    4    0    0  0.22967759932E+02  0.60539050679E+01  0.19961019106E+03  0.20101839751E+03  0.00000000000E+00 0.  1.
        -15    1    3    3    0    0 -0.24162870899E+02  0.30335362965E+02 -0.59517925931E+02  0.71060676977E+02  0.17770000000E+01 0. -1.
         15    1    3    3    0    0  0.32272518465E+02  0.43183838610E+02 -0.42606272609E+03  0.42946357664E+03  0.17770000000E+01 0.  1.
</event>
<event>
 8    1  0.9532337E-006  0.5001602E+03  0.7546771E-02  0.9399451E-01
        -11   -1    0    0    0    0  0.00000000000E+00  0.00000000000E+00  0.50000000000E+03  0.50000000000E+03  0.00000000000E+00 0.  1.
         11   -1    0    0    0    0 -0.00000000000E+00 -0.00000000000E+00 -0.50000000000E+03  0.50000000000E+03  0.00000000000E+00 0. -1.
         23    2    1    2    0    0  0.29698042809E+03  0.15004534396E+02  0.39111265208E+03  0.50016020688E+03  0.93640884272E+02 0.  0.
         23    2    1    2    0    0 -0.29698042809E+03 -0.15004534396E+02 -0.39111265208E+03  0.49983979312E+03  0.91914098207E+02 0.  0.
        -11    1    4    4    0    0 -0.14980630448E+03  0.13190552755E+02 -0.26174848765E+03  0.30187446121E+03  0.00000000000E+00 0. -1.
         11    1    4    4    0    0 -0.14717412361E+03 -0.28195087151E+02 -0.12936416443E+03  0.19796533191E+03  0.00000000000E+00 0.  1.
        -15    1    3    3    0    0  0.22133870589E+03  0.50671897053E+02  0.26714509056E+03  0.35061106802E+03  0.17770000000E+01 0.  1.
         15    1    3    3    0    0  0.75641722197E+02 -0.35667362657E+02  0.12396756152E+03  0.14954913886E+03  0.17770000000E+01 0. -1.
</event>
<event>
 8    1  0.9532337E-006  0.5003181E+03  0.7546771E-02  0.9399098E-01
        -11   -1    0    0    0    0  0.00000000000E+00  0.00000000000E+00  0.50000000000E+03  0.50000000000E+03  0.00000000000E+00 0. -1.
         11   -1    0    0    0    0 -0.00000000000E+00 -0.00000000000E+00 -0.50000000000E+03  0.50000000000E+03  0.00000000000E+00 0.  1.
         23    2    1    2    0    0  0.11209606748E+03  0.39781372293E+03 -0.26714831127E+03  0.50031811964E+03  0.90159381820E+02 0.  0.
         23    2    1    2    0    0 -0.11209606748E+03 -0.39781372293E+03  0.26714831127E+03  0.49968188036E+03  0.86559082977E+02 0.  0.
        -11    1    4    4    0    0  0.49663384613E+01 -0.12852668231E+03  0.83540518455E+02  0.15337141457E+03  0.00000000000E+00 0.  1.
         11    1    4    4    0    0 -0.11706240594E+03 -0.26928704062E+03  0.18360779282E+03  0.34631046579E+03  0.00000000000E+00 0. -1.
        -15    1    3    3    0    0  0.34685284820E+02  0.10393749500E+03 -0.26693313354E+02  0.11279079110E+03  0.17770000000E+01 0. -1.
         15    1    3    3    0    0  0.77410782662E+02  0.29387622793E+03 -0.24045499792E+03  0.38752732854E+03  0.17770000000E+01 0.  1.
</event>
<event>
 8    1  0.9532337E-006  0.5004413E+03  0.7546771E-02  0.9398823E-01
        -11   -1    0    0    0    0  0.00000000000E+00  0.00000000000E+00  0.50000000000E+03  0.50000000000E+03  0.00000000000E+00 0. -1.
         11   -1    0    0    0    0 -0.00000000000E+00 -0.00000000000E+00 -0.50000000000E+03  0.50000000000E+03  0.00000000000E+00 0.  1.
         23    2    1    2    0    0 -0.36157918931E+02 -0.59086425816E+02  0.48744552080E+03  0.50044133050E+03  0.89664868860E+02 0.  0.
         23    2    1    2    0    0  0.36157918931E+02  0.59086425816E+02 -0.48744552080E+03  0.49955866950E+03  0.84599809140E+02 0.  0.
        -11    1    4    4    0    0 -0.99535579490E+01 -0.21028017846E+01 -0.55077661988E+01  0.11568516746E+02  0.00000000000E+00 0. -1.
         11    1    4    4    0    0  0.46111476880E+02  0.61189227600E+02 -0.48193775460E+03  0.48799015275E+03  0.00000000000E+00 0.  1.
        -15    1    3    3    0    0 -0.40485921853E+02  0.84473927263E+01  0.12348992807E+03  0.13024357326E+03  0.17770000000E+01 0.  1.
         15    1    3    3    0    0  0.43280029221E+01 -0.67533818542E+02  0.36395559273E+03  0.37019775724E+03  0.17770000000E+01 0. -1.
</event>
<event>
 8    1  0.1094247E-005  0.5001770E+03  0.7546771E-02  0.9399414E-01
        -11   -1    0    0    0    0  0.00000000000E+00  0.00000000000E+00  0.50000000000E+03  0.50000000000E+03  0.00000000000E+00 0.  1.
         11   -1    0    0    0    0 -0.00000000000E+00 -0.00000000000E+00 -0.50000000000E+03  0.50000000000E+03  0.00000000000E+00 0. -1.
         23    2    1    2    0    0  0.30856008150E+02  0.17885182561E+02  0.49033372996E+03  0.49982298407E+03  0.90132545011E+02 0.  0.
         23    2    1    2    0    0 -0.30856008150E+02 -0.17885182561E+02 -0.49033372996E+03  0.50017701593E+03  0.92075553406E+02 0.  0.
        -11    1    4    4    0    0  0.13170930227E+01  0.35928324693E+02 -0.18917348838E+03  0.19255956989E+03  0.00000000000E+00 0.  1.
         11    1    4    4    0    0 -0.32173101173E+02 -0.53813507254E+02 -0.30116024158E+03  0.30761744604E+03  0.00000000000E+00 0. -1.
        -15    1    3    3    0    0  0.43424713425E+02  0.47674595672E+02  0.33313484599E+03  0.33932367461E+03  0.17770000000E+01 0.  1.
         15    1    3    3    0    0 -0.12568705275E+02 -0.29789413111E+02  0.15719888397E+03  0.16049930945E+03  0.17770000000E+01 0. -1.
</event>
<event>
 8    1  0.9532337E-006  0.5006154E+03  0.7546771E-02  0.9398434E-01
        -11   -1    0    0    0    0  0.00000000000E+00  0.00000000000E+00  0.50000000000E+03  0.50000000000E+03  0.00000000000E+00 0.  1.
         11   -1    0    0    0    0 -0.00000000000E+00 -0.00000000000E+00 -0.50000000000E+03  0.50000000000E+03  0.00000000000E+00 0. -1.
         23    2    1    2    0    0  0.38749081641E+02  0.53884920569E+02 -0.48646581761E+03  0.50061537290E+03  0.97783863106E+02 0.  0.
         23    2    1    2    0    0 -0.38749081641E+02 -0.53884920569E+02  0.48646581761E+03  0.49938462710E+03  0.91273972671E+02 0.  0.
        -11    1    4    4    0    0 -0.26936025874E+01 -0.33633598796E+02  0.46351680141E+02  0.57331951954E+02  0.00000000000E+00 0. -1.
         11    1    4    4    0    0 -0.36055479053E+02 -0.20251321773E+02  0.44011413747E+03  0.44205267515E+03  0.00000000000E+00 0.  1.
        -15    1    3    3    0    0 -0.41081260090E+01 -0.18095458453E+02 -0.23116950784E+03  0.23191985986E+03  0.17770000000E+01 0.  1.
         15    1    3    3    0    0  0.42857207650E+02  0.71980379022E+02 -0.25529630977E+03  0.26869551303E+03  0.17770000000E+01 0. -1.
</event>
<event>
 7    1  0.9532337E-006  0.5125373E+03  0.7546771E-02  0.9372185E-01
        -11   -1    0    0    0    0  0.00000000000E+00  0.00000000000E+00  0.50000000000E+03  0.50000000000E+03  0.00000000000E+00 0.  1.
         11   -1    0    0    0    0 -0.00000000000E+00 -0.00000000000E+00 -0.50000000000E+03  0.50000000000E+03  0.00000000000E+00 0. -1.
         23    2    1    2    0    0  0.17122312062E+03 -0.19692736076E+03  0.40150807810E+03  0.48746268625E+03  0.91177800212E+02 0.  0.
        -11    1    3    3    0    0  0.17006987001E+03 -0.20395551851E+03  0.40008856944E+03  0.48020045566E+03  0.00000000000E+00 0.  1.
         11    1    3    3    0    0  0.11532506067E+01  0.70281577461E+01  0.14195086559E+01  0.72622305865E+01  0.00000000000E+00 0. -1.
        -15    1    1    2    0    0 -0.24877956552E+02  0.82974754880E+02 -0.20885429344E+02  0.89123967358E+02  0.17770000000E+01 0.  1.
         15    1    1    2    0    0 -0.14634516407E+03  0.11395260588E+03 -0.38062264876E+03  0.42341334640E+03  0.17770000000E+01 0. -1.
</event>
<event>
 8    1  0.9532337E-006  0.5010603E+03  0.7546771E-02  0.9397440E-01
        -11   -1    0    0    0    0  0.00000000000E+00  0.00000000000E+00  0.50000000000E+03  0.50000000000E+03  0.00000000000E+00 0.  1.
         11   -1    0    0    0    0 -0.00000000000E+00 -0.00000000000E+00 -0.50000000000E+03  0.50000000000E+03  0.00000000000E+00 0. -1.
         23    2    1    2    0    0  0.16816627915E+02  0.20097731789E+02 -0.48918695531E+03  0.50106033511E+03  0.10521817514E+03 0.  0.
         23    2    1    2    0    0 -0.16816627915E+02 -0.20097731789E+02  0.48918695531E+03  0.49893966489E+03  0.94605465809E+02 0.  0.
        -11    1    4    4    0    0 -0.34779795650E+02  0.21860063383E+02  0.11776731755E+03  0.12472625080E+03  0.00000000000E+00 0. -1.
         11    1    4    4    0    0  0.17963167736E+02 -0.41957795172E+02  0.37141963776E+03  0.37421341409E+03  0.00000000000E+00 0.  1.
        -15    1    3    3    0    0  0.46230797510E+01 -0.20805974680E+02 -0.18037206602E+02  0.27977848377E+02  0.17770000000E+01 0.  1.
         15    1    3    3    0    0  0.12193548164E+02  0.40903706469E+02 -0.47114974870E+03  0.47308248673E+03  0.17770000000E+01 0. -1.
</event>
<event>
 8    1  0.9532337E-006  0.5003802E+03  0.7546771E-02  0.9398959E-01
        -11   -1    0    0    0    0  0.00000000000E+00  0.00000000000E+00  0.50000000000E+03  0.50000000000E+03  0.00000000000E+00 0.  1.
         11   -1    0    0    0    0 -0.00000000000E+00 -0.00000000000E+00 -0.50000000000E+03  0.50000000000E+03  0.00000000000E+00 0. -1.
         23    2    1    2    0    0  0.33761959601E+02 -0.15777533825E+03 -0.46393488164E+03  0.50038017158E+03  0.95455824508E+02 0.  0.
         23    2    1    2    0    0 -0.33761959601E+02  0.15777533825E+03  0.46393488164E+03  0.49961982842E+03  0.91386384453E+02 0.  0.
        -11    1    4    4    0    0 -0.17011696608E+02  0.16466649794E+03  0.43554665055E+03  0.46594563865E+03  0.00000000000E+00 0.  1.
         11    1    4    4    0    0 -0.16750262992E+02 -0.68911596881E+01  0.28388231090E+02  0.33674189769E+02  0.00000000000E+00 0. -1.
        -15    1    3    3    0    0 -0.29802632408E+02 -0.51805913396E+02 -0.20364143178E+03  0.21223816817E+03  0.17770000000E+01 0.  1.
         15    1    3    3    0    0  0.63564592009E+02 -0.10596942486E+03 -0.26029344987E+03  0.28814200342E+03  0.17770000000E+01 0. -1.
</event>
<event>
 8    1  0.9532337E-006  0.5000597E+03  0.7546771E-02  0.9399676E-01
        -11   -1    0    0    0    0  0.00000000000E+00  0.00000000000E+00  0.50000000000E+03  0.50000000000E+03  0.00000000000E+00 0.  1.
         11   -1    0    0    0    0 -0.00000000000E+00 -0.00000000000E+00 -0.50000000000E+03  0.50000000000E+03  0.00000000000E+00 0. -1.
         23    2    1    2    0    0  0.74184690855E+01  0.68295638569E+01 -0.49147798275E+03  0.49994033852E+03  0.91038771545E+02 0.  0.
         23    2    1    2    0    0 -0.74184690855E+01 -0.68295638569E+01  0.49147798275E+03  0.50005966148E+03  0.91691771067E+02 0.  0.
        -11    1    4    4    0    0  0.18624633405E+02 -0.18974696684E+02  0.44232357105E+03  0.44312194438E+03  0.00000000000E+00 0.  1.
         11    1    4    4    0    0 -0.26043102490E+02  0.12145132828E+02  0.49154411706E+02  0.56937717103E+02  0.00000000000E+00 0. -1.
        -15    1    3    3    0    0 -0.44185186561E+01  0.39067999654E+01  0.18708123003E+01  0.64377061712E+01  0.17770000000E+01 0.  1.
         15    1    3    3    0    0  0.11836987742E+02  0.29227638915E+01 -0.49334879505E+03  0.49350263235E+03  0.17770000000E+01 0. -1.
</event>
<event>
 8    1  0.9532337E-006  0.5001103E+03  0.7546771E-02  0.9399563E-01
        -11   -1    0    0    0    0  0.00000000000E+00  0.00000000000E+00  0.50000000000E+03  0.50000000000E+03  0.00000000000E+00 0.  1.
         11   -1    0    0    0    0 -0.00000000000E+00 -0.00000000000E+00 -0.50000000000E+03  0.50000000000E+03  0.00000000000E+00 0. -1.
         23    2    1    2    0    0 -0.41617442268E+03  0.16647006734E+03  0.20215527364E+03  0.50011034965E+03  0.91269785540E+02 0.  0.
         23    2    1    2    0    0  0.41617442268E+03 -0.16647006734E+03 -0.20215527364E+03  0.49988965035E+03  0.90052620499E+02 0.  0.
        -11    1    4    4    0    0  0.91405183628E+02 -0.59403518046E+02 -0.85618507095E+02  0.13861534658E+03  0.00000000000E+00 0.  1.
         11    1    4    4    0    0  0.32476923905E+03 -0.10706654930E+03 -0.11653676655E+03  0.36127430377E+03  0.00000000000E+00 0. -1.
        -15    1    3    3    0    0 -0.40046044415E+03  0.17760301145E+03  0.19430668259E+03  0.47923860616E+03  0.17770000000E+01 0.  1.
         15    1    3    3    0    0 -0.15713978526E+02 -0.11132944111E+02  0.78485910553E+01  0.20871743488E+02  0.17770000000E+01 0. -1.
</event>
<event>
 8    1  0.9532337E-006  0.5000771E+03  0.7546771E-02  0.9399637E-01
        -11   -1    0    0    0    0  0.00000000000E+00  0.00000000000E+00  0.50000000000E+03  0.50000000000E+03  0.00000000000E+00 0.  1.
         11   -1    0    0    0    0 -0.00000000000E+00 -0.00000000000E+00 -0.50000000000E+03  0.50000000000E+03  0.00000000000E+00 0. -1.
         23    2    1    2    0    0  0.10165525270E+03  0.16008384759E+03 -0.45339061085E+03  0.49992289183E+03  0.91647275537E+02 0.  0.
         23    2    1    2    0    0 -0.10165525270E+03 -0.16008384759E+03  0.45339061085E+03  0.50007710817E+03  0.92484806558E+02 0.  0.
        -11    1    4    4    0    0  0.10757990996E+02 -0.38405051697E+02  0.49737170568E+02  0.63753184251E+02  0.00000000000E+00 0. -1.
         11    1    4    4    0    0 -0.11241324370E+03 -0.12167879589E+03  0.40365344028E+03  0.43632392391E+03  0.00000000000E+00 0.  1.
        -15    1    3    3    0    0  0.85489996100E+02  0.72260935471E+02 -0.32319932738E+03  0.34203968362E+03  0.17770000000E+01 0. -1.
         15    1    3    3    0    0  0.16165256604E+02  0.87822912114E+02 -0.13019128347E+03  0.15788320821E+03  0.17770000000E+01 0.  1.
</event>
<event>
 8    1  0.9532337E-006  0.5003771E+03  0.7546771E-02  0.9398966E-01
        -11   -1    0    0    0    0  0.00000000000E+00  0.00000000000E+00  0.50000000000E+03  0.50000000000E+03  0.00000000000E+00 0.  1.
         11   -1    0    0    0    0 -0.00000000000E+00 -0.00000000000E+00 -0.50000000000E+03  0.50000000000E+03  0.00000000000E+00 0. -1.
         23    2    1    2    0    0 -0.36663390220E+02 -0.21190660630E+03  0.44134458029E+03  0.49962286575E+03  0.92678775647E+02 0.  0.
         23    2    1    2    0    0  0.36663390220E+02  0.21190660630E+03 -0.44134458029E+03  0.50037713425E+03  0.96662422615E+02 0.  0.
        -11    1    4    4    0    0 -0.19391095352E+02  0.11453300930E+03 -0.16251994938E+03  0.19976626028E+03  0.00000000000E+00 0. -1.
         11    1    4    4    0    0  0.56054485572E+02  0.97373597005E+02 -0.27882463091E+03  0.30061087397E+03  0.00000000000E+00 0.  1.
        -15    1    3    3    0    0  0.15264811279E+02 -0.12715472257E+03  0.30572971215E+03  0.33147421100E+03  0.17770000000E+01 0.  1.
         15    1    3    3    0    0 -0.51928201498E+02 -0.84751883734E+02  0.13561486814E+03  0.16814865476E+03  0.17770000000E+01 0. -1.
</event>
<event>
 8    1  0.9532337E-006  0.5024071E+03  0.7546771E-02  0.9394440E-01
        -11   -1    0    0    0    0  0.00000000000E+00  0.00000000000E+00  0.50000000000E+03  0.50000000000E+03  0.00000000000E+00 0. -1.
         11   -1    0    0    0    0 -0.00000000000E+00 -0.00000000000E+00 -0.50000000000E+03  0.50000000000E+03  0.00000000000E+00 0. -1.
         23    2    1    2    0    0 -0.16174721954E+02  0.93354808407E+01 -0.48865701922E+03  0.49759293447E+03  0.92001484584E+02 0.  0.
         23    2    1    2    0    0  0.16174721954E+02 -0.93354808407E+01  0.48865701922E+03  0.50240706553E+03  0.11523195838E+03 0.  0.
        -11    1    4    4    0    0 -0.54840109288E+01  0.22059589569E+02  0.43998060340E+03  0.44056739693E+03  0.00000000000E+00 0. -1.
         11    1    4    4    0    0  0.21658732883E+02 -0.31395070410E+02  0.48676415821E+02  0.61839668606E+02  0.00000000000E+00 0. -1.
        -15    1    3    3    0    0 -0.18419698595E+02 -0.40162278220E+02 -0.22034212151E+03  0.22473562719E+03  0.17770000000E+01 0. -1.
         15    1    3    3    0    0  0.22449766408E+01  0.49497759060E+02 -0.26831489771E+03  0.27285730727E+03  0.17770000000E+01 0.  1.
</event>
<event>
 8    1  0.9532337E-006  0.5001442E+03  0.7546771E-02  0.9399487E-01
        -11   -1    0    0    0    0  0.00000000000E+00  0.00000000000E+00  0.50000000000E+03  0.50000000000E+03  0.00000000000E+00 0.  1.
         11   -1    0    0    0    0 -0.00000000000E+00 -0.00000000000E+00 -0.50000000000E+03  0.50000000000E+03  0.00000000000E+00 0. -1.
         23    2    1    2    0    0 -0.97827412031E+01  0.68987294458E+01 -0.49160523164E+03  0.50014419287E+03  0.91242618306E+02 0.  0.
         23    2    1    2    0    0  0.97827412031E+01 -0.68987294458E+01  0.49160523164E+03  0.49985580713E+03  0.89648366696E+02 0.  0.
        -11    1    4    4    0    0 -0.34810835212E+02  0.14019211600E+02  0.28500629582E+03  0.28746638273E+03  0.00000000000E+00 0. -1.
         11    1    4    4    0    0  0.44593576415E+02 -0.20917941046E+02  0.20659893581E+03  0.21238942440E+03  0.00000000000E+00 0.  1.
        -15    1    3    3    0    0  0.22083325162E+01 -0.16383971022E+02 -0.13771147255E+02  0.21589661060E+02  0.17770000000E+01 0.  1.
         15    1    3    3    0    0 -0.11991073719E+02  0.23282700468E+02 -0.47783408438E+03  0.47855453181E+03  0.17770000000E+01 0. -1.
</event>
<event>
 8    1  0.9532337E-006  0.5012822E+03  0.7546771E-02  0.9396945E-01
        -11   -1    0    0    0    0  0.00000000000E+00  0.00000000000E+00  0.50000000000E+03  0.50000000000E+03  0.00000000000E+00 0. -1.
         11   -1    0    0    0    0 -0.00000000000E+00 -0.00000000000E+00 -0.50000000000E+03  0.50000000000E+03  0.00000000000E+00 0.  1.
         23    2    1    2    0    0 -0.39932271932E+02  0.44202881886E+02 -0.48879258092E+03  0.50128223892E+03  0.93900025511E+02 0.  0.
         23    2    1    2    0    0  0.39932271932E+02 -0.44202881886E+02  0.48879258092E+03  0.49871776108E+03  0.79074249552E+02 0.  0.
        -11    1    4    4    0    0  0.38853251790E+01 -0.35864339743E+01 -0.14450768947E+01  0.54814694772E+01  0.00000000000E+00 0.  1.
         11    1    4    4    0    0  0.36046946753E+02 -0.40616447912E+02  0.49023765781E+03  0.49323629160E+03  0.00000000000E+00 0. -1.
        -15    1    3    3    0    0  0.24137492217E+01 -0.18138692543E+02 -0.25444479148E+03  0.25510811040E+03  0.17770000000E+01 0.  1.
         15    1    3    3    0    0 -0.42346021153E+02  0.62341574429E+02 -0.23434778944E+03  0.24617412852E+03  0.17770000000E+01 0. -1.
</event>
<event>
 8    1  0.9532337E-006  0.5002522E+03  0.7546771E-02  0.9399246E-01
        -11   -1    0    0    0    0  0.00000000000E+00  0.00000000000E+00  0.50000000000E+03  0.50000000000E+03  0.00000000000E+00 0. -1.
         11   -1    0    0    0    0 -0.00000000000E+00 -0.00000000000E+00 -0.50000000000E+03  0.50000000000E+03  0.00000000000E+00 0.  1.
         23    2    1    2    0    0 -0.22780077727E+02 -0.33798197424E+03  0.35604887353E+03  0.50025218440E+03  0.93438219202E+02 0.  0.
         23    2    1    2    0    0  0.22780077727E+02  0.33798197424E+03 -0.35604887353E+03  0.49974781560E+03  0.90699129011E+02 0.  0.
        -11    1    4    4    0    0  0.48733258294E+02  0.11868441943E+03 -0.15391653947E+03  0.20037770086E+03  0.00000000000E+00 0. -1.
         11    1    4    4    0    0 -0.25953180566E+02  0.21929755481E+03 -0.20213233405E+03  0.29937011474E+03  0.00000000000E+00 0.  1.
        -15    1    3    3    0    0  0.56577825229E+01 -0.13199036967E+03  0.20234513601E+03  0.24166129187E+03  0.17770000000E+01 0.  1.
         15    1    3    3    0    0 -0.28437860250E+02 -0.20599160457E+03  0.15370373751E+03  0.25859089254E+03  0.17770000000E+01 0. -1.
</event>
<event>
 8    1  0.9532337E-006  0.5005322E+03  0.7546771E-02  0.9398620E-01
        -11   -1    0    0    0    0  0.00000000000E+00  0.00000000000E+00  0.50000000000E+03  0.50000000000E+03  0.00000000000E+00 0.  1.
         11   -1    0    0    0    0 -0.00000000000E+00 -0.00000000000E+00 -0.50000000000E+03  0.50000000000E+03  0.00000000000E+00 0. -1.
         23    2    1    2    0    0  0.26377125591E+02 -0.84494050027E+02 -0.48379403893E+03  0.49946782436E+03  0.87042737914E+02 0.  0.
         23    2    1    2    0    0 -0.26377125591E+02  0.84494050027E+02  0.48379403893E+03  0.50053217564E+03  0.92955847033E+02 0.  0.
        -11    1    4    4    0    0 -0.14231438564E+02  0.78384087357E+02  0.47978991016E+03  0.48635887664E+03  0.00000000000E+00 0.  1.
         11    1    4    4    0    0 -0.12145687026E+02  0.61099626703E+01  0.40041287673E+01  0.14173298994E+02  0.00000000000E+00 0. -1.
        -15    1    3    3    0    0 -0.55312752265E+01  0.10730390642E+02 -0.12050834571E+02  0.17149828915E+02  0.17770000000E+01 0.  1.
         15    1    3    3    0    0  0.31908400817E+02 -0.95224440669E+02 -0.47174320436E+03  0.48231799545E+03  0.17770000000E+01 0. -1.
</event>
<event>
 8    1  0.9532337E-006  0.5004834E+03  0.7546771E-02  0.9398729E-01
        -11   -1    0    0    0    0  0.00000000000E+00  0.00000000000E+00  0.50000000000E+03  0.50000000000E+03  0.00000000000E+00 0. -1.
         11   -1    0    0    0    0 -0.00000000000E+00 -0.00000000000E+00 -0.50000000000E+03  0.50000000000E+03  0.00000000000E+00 0.  1.
         23    2    1    2    0    0  0.12508822151E+02 -0.20430109396E+02 -0.49055074448E+03  0.50048338186E+03  0.96279398677E+02 0.  0.
         23    2    1    2    0    0 -0.12508822151E+02  0.20430109396E+02  0.49055074448E+03  0.49951661814E+03  0.91120573345E+02 0.  0.
        -11    1    4    4    0    0  0.26945304525E+02  0.19882090486E+02  0.39099861885E+03  0.39242995159E+03  0.00000000000E+00 0. -1.
         11    1    4    4    0    0 -0.39454126676E+02  0.54801891047E+00  0.99552125627E+02  0.10708666655E+03  0.00000000000E+00 0.  1.
        -15    1    3    3    0    0  0.11352922156E+02  0.79765501685E+01 -0.62084429632E+01  0.15304139541E+02  0.17770000000E+01 0. -1.
         15    1    3    3    0    0  0.11558999947E+01 -0.28406659565E+02 -0.48434230152E+03  0.48517924232E+03  0.17770000000E+01 0.  1.
</event>
<event>
 8    1  0.9532337E-006  0.5001697E+03  0.7546771E-02  0.9399430E-01
        -11   -1    0    0    0    0  0.00000000000E+00  0.00000000000E+00  0.50000000000E+03  0.50000000000E+03  0.00000000000E+00 0.  1.
         11   -1    0    0    0    0 -0.00000000000E+00 -0.00000000000E+00 -0.50000000000E+03  0.50000000000E+03  0.00000000000E+00 0. -1.
         23    2    1    2    0    0  0.10984502460E+03 -0.12016812705E+03 -0.46379106085E+03  0.50016974608E+03  0.92527393658E+02 0.  0.
         23    2    1    2    0    0 -0.10984502460E+03  0.12016812705E+03  0.46379106085E+03  0.49983025392E+03  0.90674287538E+02 0.  0.
        -11    1    4    4    0    0 -0.30923760212E+02  0.35639618772E+02  0.44412342988E+02  0.64799055406E+02  0.00000000000E+00 0. -1.
         11    1    4    4    0    0 -0.78921264386E+02  0.84528508280E+02  0.41937871786E+03  0.43503119852E+03  0.00000000000E+00 0.  1.
        -15    1    3    3    0    0  0.49843580058E+02 -0.52049416913E+01 -0.74173546543E+02  0.89534052889E+02  0.17770000000E+01 0.  1.
         15    1    3    3    0    0  0.60001444540E+02 -0.11496318536E+03 -0.38961751431E+03  0.41063569319E+03  0.17770000000E+01 0. -1.
</event>
<event>
 8    1  0.9532337E-006  0.5001535E+03  0.7546771E-02  0.9399466E-01
        -11   -1    0    0    0    0  0.00000000000E+00  0.00000000000E+00  0.50000000000E+03  0.50000000000E+03  0.00000000000E+00 0. -1.
         11   -1    0    0    0    0 -0.00000000000E+00 -0.00000000000E+00 -0.50000000000E+03  0.50000000000E+03  0.00000000000E+00 0.  1.
         23    2    1    2    0    0 -0.37305846999E+02 -0.29063527717E+02 -0.48964571261E+03  0.49984648542E+03  0.88640680512E+02 0.  0.
         23    2    1    2    0    0  0.37305846999E+02  0.29063527717E+02  0.48964571261E+03  0.50015351458E+03  0.90355959437E+02 0.  0.
        -11    1    4    4    0    0  0.55122148433E+02  0.50040674308E+02  0.35387629347E+03  0.36162266441E+03  0.00000000000E+00 0. -1.
         11    1    4    4    0    0 -0.17816301434E+02 -0.20977146591E+02  0.13576941914E+03  0.13853085017E+03  0.00000000000E+00 0.  1.
        -15    1    3    3    0    0 -0.98440777060E+01 -0.29108164725E+02 -0.45286802523E+03  0.45391276378E+03  0.17770000000E+01 0.  1.
         15    1    3    3    0    0 -0.27461769293E+02  0.44637007953E-01 -0.36777687382E+02  0.45933721636E+02  0.17770000000E+01 0. -1.
</event>
<event>
 8    1  0.9532337E-006  0.5002404E+03  0.7546771E-02  0.9399272E-01
        -11   -1    0    0    0    0  0.00000000000E+00  0.00000000000E+00  0.50000000000E+03  0.50000000000E+03  0.00000000000E+00 0.  1.
         11   -1    0    0    0    0 -0.00000000000E+00 -0.00000000000E+00 -0.50000000000E+03  0.50000000000E+03  0.00000000000E+00 0. -1.
         23    2    1    2    0    0  0.29390653068E+03 -0.13641712585E+03 -0.37032764685E+03  0.50024040180E+03  0.90040060895E+02 0.  0.
         23    2    1    2    0    0 -0.29390653068E+03  0.13641712585E+03  0.37032764685E+03  0.49975959820E+03  0.87329313317E+02 0.  0.
        -11    1    4    4    0    0 -0.60117347003E+02 -0.39022374310E+01  0.44516383150E+02  0.74906817022E+02  0.00000000000E+00 0. -1.
         11    1    4    4    0    0 -0.23378918368E+03  0.14031936328E+03  0.32581126370E+03  0.42485278118E+03  0.00000000000E+00 0.  1.
        -15    1    3    3    0    0  0.16273814130E+03 -0.12130880087E+03 -0.20286018352E+03  0.28697550347E+03  0.17770000000E+01 0. -1.
         15    1    3    3    0    0  0.13116838939E+03 -0.15108324977E+02 -0.16746746333E+03  0.21326489834E+03  0.17770000000E+01 0.  1.
</event>
<event>
 8    1  0.9532337E-006  0.5003609E+03  0.7546771E-02  0.9399002E-01
        -11   -1    0    0    0    0  0.00000000000E+00  0.00000000000E+00  0.50000000000E+03  0.50000000000E+03  0.00000000000E+00 0.  1.
         11   -1    0    0    0    0 -0.00000000000E+00 -0.00000000000E+00 -0.50000000000E+03  0.50000000000E+03  0.00000000000E+00 0. -1.
         23    2    1    2    0    0  0.45083907923E+02  0.39673504181E+02 -0.48835693737E+03  0.50036093003E+03  0.90895634267E+02 0.  0.
         23    2    1    2    0    0 -0.45083907923E+02 -0.39673504181E+02  0.48835693737E+03  0.49963906997E+03  0.86834073240E+02 0.  0.
        -11    1    4    4    0    0 -0.57185519982E+01 -0.53730334923E+02  0.16574110709E+03  0.17432660528E+03  0.00000000000E+00 0. -1.
         11    1    4    4    0    0 -0.39365355924E+02  0.14056830742E+02  0.32261583028E+03  0.32531246469E+03  0.00000000000E+00 0.  1.
        -15    1    3    3    0    0  0.60508800614E+02  0.30088613424E+02 -0.46866235913E+03  0.47351262307E+03  0.17770000000E+01 0. -1.
         15    1    3    3    0    0 -0.15424892692E+02  0.95848907567E+01 -0.19694578240E+02  0.26848306956E+02  0.17770000000E+01 0.  1.
</event>
<event>
 8    1  0.9532337E-006  0.5019174E+03  0.7546771E-02  0.9395530E-01
        -11   -1    0    0    0    0  0.00000000000E+00  0.00000000000E+00  0.50000000000E+03  0.50000000000E+03  0.00000000000E+00 0.  1.
         11   -1    0    0    0    0 -0.00000000000E+00 -0.00000000000E+00 -0.50000000000E+03  0.50000000000E+03  0.00000000000E+00 0. -1.
         23    2    1    2    0    0 -0.60088849338E+01  0.19665268581E+02 -0.48994333374E+03  0.50191740823E+03  0.10702235712E+03 0.  0.
         23    2    1    2    0    0  0.60088849338E+01 -0.19665268581E+02  0.48994333374E+03  0.49808259177E+03  0.87286702651E+02 0.  0.
        -11    1    4    4    0    0  0.26611313226E+02  0.25338457732E+02  0.14389595415E+03  0.14851345075E+03  0.00000000000E+00 0. -1.
         11    1    4    4    0    0 -0.20602428293E+02 -0.45003726313E+02  0.34604737959E+03  0.34956914102E+03  0.00000000000E+00 0.  1.
        -15    1    3    3    0    0  0.42462115325E+02 -0.16495270289E+02 -0.15544982925E+03  0.16199670467E+03  0.17770000000E+01 0.  1.
         15    1    3    3    0    0 -0.48471000259E+02  0.36160538870E+02 -0.33449350449E+03  0.33992070357E+03  0.17770000000E+01 0. -1.
</event>
<event>
 8    1  0.9532337E-006  0.5003699E+03  0.7546771E-02  0.9398982E-01
        -11   -1    0    0    0    0  0.00000000000E+00  0.00000000000E+00  0.50000000000E+03  0.50000000000E+03  0.00000000000E+00 0.  1.
         11   -1    0    0    0    0 -0.00000000000E+00 -0.00000000000E+00 -0.50000000000E+03  0.50000000000E+03  0.00000000000E+00 0. -1.
         23    2    1    2    0    0 -0.21917782683E+01 -0.10179647201E+02 -0.49147908435E+03  0.49963013394E+03  0.89275703761E+02 0.  0.
         23    2    1    2    0    0  0.21917782683E+01  0.10179647201E+02  0.49147908435E+03  0.50036986606E+03  0.93326756041E+02 0.  0.
        -11    1    4    4    0    0 -0.30572535307E+02  0.15852485120E+01  0.58125652101E+02  0.65694629614E+02  0.00000000000E+00 0. -1.
         11    1    4    4    0    0  0.32764313575E+02  0.85943986886E+01  0.43335343225E+03  0.43467523644E+03  0.00000000000E+00 0.  1.
        -15    1    3    3    0    0  0.53901514767E+01  0.33058830320E+02 -0.95461574535E+02  0.10118305163E+03  0.17770000000E+01 0.  1.
         15    1    3    3    0    0 -0.75819297449E+01 -0.43238477520E+02 -0.39601750982E+03  0.39844708232E+03  0.17770000000E+01 0. -1.
</event>
<event>
 8    1  0.9532337E-006  0.5000520E+03  0.7546771E-02  0.9399693E-01
        -11   -1    0    0    0    0  0.00000000000E+00  0.00000000000E+00  0.50000000000E+03  0.50000000000E+03  0.00000000000E+00 0. -1.
         11   -1    0    0    0    0 -0.00000000000E+00 -0.00000000000E+00 -0.50000000000E+03  0.50000000000E+03  0.00000000000E+00 0.  1.
         23    2    1    2    0    0  0.23605113215E+03  0.35057458492E+03 -0.25130993054E+03  0.50005201115E+03  0.90954142782E+02 0.  0.
         23    2    1    2    0    0 -0.23605113215E+03 -0.35057458492E+03  0.25130993054E+03  0.49994798885E+03  0.90380494478E+02 0.  0.
        -11    1    4    4    0    0 -0.12636032111E+03 -0.13055642230E+03  0.14339284916E+03  0.23145932547E+03  0.00000000000E+00 0.  1.
         11    1    4    4    0    0 -0.10969081104E+03 -0.22001816262E+03  0.10791708137E+03  0.26848866338E+03  0.00000000000E+00 0. -1.
        -15    1    3    3    0    0  0.16387286720E+03  0.16258812760E+03 -0.12919310907E+03  0.26454344255E+03  0.17770000000E+01 0.  1.
         15    1    3    3    0    0  0.72178264957E+02  0.18798645732E+03 -0.12211682147E+03  0.23550856860E+03  0.17770000000E+01 0. -1.
</event>
<event>
 8    1  0.9532337E-006  0.5018300E+03  0.7546771E-02  0.9395724E-01
        -11   -1    0    0    0    0  0.00000000000E+00  0.00000000000E+00  0.50000000000E+03  0.50000000000E+03  0.00000000000E+00 0. -1.
         11   -1    0    0    0    0 -0.00000000000E+00 -0.00000000000E+00 -0.50000000000E+03  0.50000000000E+03  0.00000000000E+00 0. -1.
         23    2    1    2    0    0  0.12779481580E+02 -0.74001191556E+01 -0.48959774147E+03  0.49816996204E+03  0.90825578487E+02 0.  0.
         23    2    1    2    0    0 -0.12779481580E+02  0.74001191556E+01  0.48959774147E+03  0.50183003796E+03  0.10913002167E+03 0.  0.
        -11    1    4    4    0    0  0.21362218637E+02  0.28327193506E+02  0.42029340556E+03  0.42178824194E+03  0.00000000000E+00 0. -1.
         11    1    4    4    0    0 -0.34141700217E+02 -0.20927074350E+02  0.69304335914E+02  0.80041796026E+02  0.00000000000E+00 0. -1.
        -15    1    3    3    0    0 -0.57511308951E+01 -0.25072427747E+02 -0.38466486778E+02  0.46309075501E+02  0.17770000000E+01 0.  1.
         15    1    3    3    0    0  0.18530612475E+02  0.17672308591E+02 -0.45113125470E+03  0.45186088654E+03  0.17770000000E+01 0. -1.
</event>
<event>
 8    1  0.9532337E-006  0.5006419E+03  0.7546771E-02  0.9398375E-01
        -11   -1    0    0    0    0  0.00000000000E+00  0.00000000000E+00  0.50000000000E+03  0.50000000000E+03  0.00000000000E+00 0. -1.
         11   -1    0    0    0    0 -0.00000000000E+00 -0.00000000000E+00 -0.50000000000E+03  0.50000000000E+03  0.00000000000E+00 0.  1.
         23    2    1    2    0    0  0.35406221639E+02  0.55950173655E+02 -0.48719806519E+03  0.50064187061E+03  0.94320228035E+02 0.  0.
         23    2    1    2    0    0 -0.35406221639E+02 -0.55950173655E+02  0.48719806519E+03  0.49935812939E+03  0.87250009761E+02 0.  0.
        -11    1    4    4    0    0 -0.11068878824E+02 -0.73900380096E+01  0.51679257337E+01  0.14277261523E+02  0.00000000000E+00 0.  1.
         11    1    4    4    0    0 -0.24337342814E+02 -0.48560135646E+02  0.48203013946E+03  0.48508086787E+03  0.00000000000E+00 0. -1.
        -15    1    3    3    0    0  0.36267470333E+02 -0.16186162845E+02 -0.23432774967E+03  0.23767619415E+03  0.17770000000E+01 0.  1.
         15    1    3    3    0    0 -0.86124869461E+00  0.72136336501E+02 -0.25287031552E+03  0.26296567645E+03  0.17770000000E+01 0. -1.
</event>
<event>
 8    1  0.9532337E-006  0.5001078E+03  0.7546771E-02  0.9399568E-01
        -11   -1    0    0    0    0  0.00000000000E+00  0.00000000000E+00  0.50000000000E+03  0.50000000000E+03  0.00000000000E+00 0. -1.
         11   -1    0    0    0    0 -0.00000000000E+00 -0.00000000000E+00 -0.50000000000E+03  0.50000000000E+03  0.00000000000E+00 0.  1.
         23    2    1    2    0    0  0.11117653713E+03 -0.71194149299E+02  0.47364615011E+03  0.50010783563E+03  0.91314524814E+02 0.  0.
         23    2    1    2    0    0 -0.11117653713E+03  0.71194149299E+02 -0.47364615011E+03  0.49989216437E+03  0.90125862991E+02 0.  0.
        -11    1    4    4    0    0 -0.23677382008E+01  0.45189160677E+02 -0.98035547431E+02  0.10797515912E+03  0.00000000000E+00 0. -1.
         11    1    4    4    0    0 -0.10880879893E+03  0.26004988622E+02 -0.37561060268E+03  0.39191700525E+03  0.00000000000E+00 0.  1.
        -15    1    3    3    0    0  0.11456611031E+02  0.19903732238E+02  0.10491122710E+03  0.10741012892E+03  0.17770000000E+01 0.  1.
         15    1    3    3    0    0  0.99719926100E+02 -0.91097881536E+02  0.36873492301E+03  0.39269770671E+03  0.17770000000E+01 0. -1.
</event>
<event>
 8    1  0.9532337E-006  0.5001752E+03  0.7546771E-02  0.9399418E-01
        -11   -1    0    0    0    0  0.00000000000E+00  0.00000000000E+00  0.50000000000E+03  0.50000000000E+03  0.00000000000E+00 0.  1.
         11   -1    0    0    0    0 -0.00000000000E+00 -0.00000000000E+00 -0.50000000000E+03  0.50000000000E+03  0.00000000000E+00 0. -1.
         23    2    1    2    0    0 -0.10526236259E+03  0.18526718562E+03  0.44256015658E+03  0.49982476781E+03  0.92526813822E+02 0.  0.
         23    2    1    2    0    0  0.10526236259E+03 -0.18526718562E+03 -0.44256015658E+03  0.50017523219E+03  0.94401671933E+02 0.  0.
        -11    1    4    4    0    0  0.46496449019E+02 -0.67839857033E+02 -0.80690345347E+02  0.11521761066E+03  0.00000000000E+00 0.  1.
         11    1    4    4    0    0  0.58765913567E+02 -0.11742732858E+03 -0.36186981123E+03  0.38495762154E+03  0.00000000000E+00 0. -1.
        -15    1    3    3    0    0 -0.11226602185E+03  0.14842576456E+03  0.40946791040E+03  0.44977882856E+03  0.17770000000E+01 0.  1.
         15    1    3    3    0    0  0.70036592635E+01  0.36841421053E+02  0.33092246180E+02  0.50045939242E+02  0.17770000000E+01 0. -1.
</event>
<event>
 8    1  0.9532337E-006  0.5005908E+03  0.7546771E-02  0.9398489E-01
        -11   -1    0    0    0    0  0.00000000000E+00  0.00000000000E+00  0.50000000000E+03  0.50000000000E+03  0.00000000000E+00 0. -1.
         11   -1    0    0    0    0 -0.00000000000E+00 -0.00000000000E+00 -0.50000000000E+03  0.50000000000E+03  0.00000000000E+00 0. -1.
         23    2    1    2    0    0  0.13051433199E+02  0.74444796748E+02 -0.48590416264E+03  0.50059080025E+03  0.93679914331E+02 0.  0.
         23    2    1    2    0    0 -0.13051433199E+02 -0.74444796748E+02  0.48590416264E+03  0.49940919975E+03  0.87145429347E+02 0.  0.
        -11    1    4    4    0    0  0.28369276022E+02 -0.32611910875E+02  0.98624965715E+02  0.10768117948E+03  0.00000000000E+00 0. -1.
         11    1    4    4    0    0 -0.41420709221E+02 -0.41832885874E+02  0.38727919693E+03  0.39172802027E+03  0.00000000000E+00 0. -1.
        -15    1    3    3    0    0  0.70963655303E+01  0.52075826174E+02 -0.91737988475E+02  0.10574150715E+03  0.17770000000E+01 0.  1.
         15    1    3    3    0    0  0.59550676692E+01  0.22368970574E+02 -0.39416617417E+03  0.39484929310E+03  0.17770000000E+01 0. -1.
</event>
<event>
 8    1  0.9532337E-006  0.5002120E+03  0.7546771E-02  0.9399336E-01
        -11   -1    0    0    0    0  0.00000000000E+00  0.00000000000E+00  0.50000000000E+03  0.50000000000E+03  0.00000000000E+00 0.  1.
         11   -1    0    0    0    0 -0.00000000000E+00 -0.00000000000E+00 -0.50000000000E+03  0.50000000000E+03  0.00000000000E+00 0. -1.
         23    2    1    2    0    0  0.11693642562E+02 -0.19283551903E+02 -0.49103605326E+03  0.49978801584E+03  0.90349645938E+02 0.  0.
         23    2    1    2    0    0 -0.11693642562E+02  0.19283551903E+02  0.49103605326E+03  0.50021198416E+03  0.92666211976E+02 0.  0.
        -11    1    4    4    0    0 -0.37188941943E+02 -0.24530220876E+02  0.24269012568E+03  0.24674530642E+03  0.00000000000E+00 0.  1.
         11    1    4    4    0    0  0.25495299381E+02  0.43813772779E+02  0.24834592758E+03  0.25346667774E+03  0.00000000000E+00 0. -1.
        -15    1    3    3    0    0  0.19148709857E+02 -0.47001469550E+02 -0.42137801576E+03  0.42442714466E+03  0.17770000000E+01 0. -1.
         15    1    3    3    0    0 -0.74550672948E+01  0.27717917647E+02 -0.69658037506E+02  0.75360871182E+02  0.17770000000E+01 0.  1.
</event>
<event>
 8    1  0.9532337E-006  0.5004868E+03  0.7546771E-02  0.9398721E-01
        -11   -1    0    0    0    0  0.00000000000E+00  0.00000000000E+00  0.50000000000E+03  0.50000000000E+03  0.00000000000E+00 0. -1.
         11   -1    0    0    0    0 -0.00000000000E+00 -0.00000000000E+00 -0.50000000000E+03  0.50000000000E+03  0.00000000000E+00 0.  1.
         23    2    1    2    0    0 -0.45451842031E+01 -0.47046969303E+01 -0.49136545760E+03  0.50048677290E+03  0.94890484551E+02 0.  0.
         23    2    1    2    0    0  0.45451842031E+01  0.47046969303E+01  0.49136545760E+03  0.49951322710E+03  0.89613940055E+02 0.  0.
        -11    1    4    4    0    0  0.16377337191E+02  0.44967141314E+02  0.25527480430E+03  0.25972194109E+03  0.00000000000E+00 0. -1.
         11    1    4    4    0    0 -0.11832152988E+02 -0.40262444383E+02  0.23609065329E+03  0.23979128601E+03  0.00000000000E+00 0.  1.
        -15    1    3    3    0    0 -0.31119368030E+02 -0.16050284417E+02 -0.71586738618E+02  0.79711012861E+02  0.17770000000E+01 0. -1.
         15    1    3    3    0    0  0.26574183827E+02  0.11345587487E+02 -0.41977871898E+03  0.42077576004E+03  0.17770000000E+01 0.  1.
</event>
<event>
 8    1  0.9532337E-006  0.5001480E+03  0.7546771E-02  0.9399479E-01
        -11   -1    0    0    0    0  0.00000000000E+00  0.00000000000E+00  0.50000000000E+03  0.50000000000E+03  0.00000000000E+00 0.  1.
         11   -1    0    0    0    0 -0.00000000000E+00 -0.00000000000E+00 -0.50000000000E+03  0.50000000000E+03  0.00000000000E+00 0. -1.
         23    2    1    2    0    0 -0.16605990773E+03  0.15733598926E+03  0.43521665879E+03  0.50014795983E+03  0.91672979405E+02 0.  0.
         23    2    1    2    0    0  0.16605990773E+03 -0.15733598926E+03 -0.43521665879E+03  0.49985204017E+03  0.90044519561E+02 0.  0.
        -11    1    4    4    0    0  0.40401101617E+02 -0.20646262896E+02 -0.30764926437E+02  0.54817860978E+02  0.00000000000E+00 0.  1.
         11    1    4    4    0    0  0.12565880612E+03 -0.13668972636E+03 -0.40445173236E+03  0.44503417920E+03  0.00000000000E+00 0. -1.
        -15    1    3    3    0    0 -0.15897458597E+03  0.10164813736E+03  0.35769992445E+03  0.40442262115E+03  0.17770000000E+01 0.  1.
         15    1    3    3    0    0 -0.70853217642E+01  0.55687851892E+02  0.77516734345E+02  0.95725338679E+02  0.17770000000E+01 0. -1.
</event>
<event>
 8    1  0.9532337E-006  0.5002008E+03  0.7546771E-02  0.9399361E-01
        -11   -1    0    0    0    0  0.00000000000E+00  0.00000000000E+00  0.50000000000E+03  0.50000000000E+03  0.00000000000E+00 0.  1.
         11   -1    0    0    0    0 -0.00000000000E+00 -0.00000000000E+00 -0.50000000000E+03  0.50000000000E+03  0.00000000000E+00 0. -1.
         23    2    1    2    0    0 -0.12309313563E+02 -0.30757772675E+02 -0.49045958207E+03  0.50020076943E+03  0.92480529343E+02 0.  0.
         23    2    1    2    0    0  0.12309313563E+02  0.30757772675E+02  0.49045958207E+03  0.49979923057E+03  0.90283494907E+02 0.  0.
        -11    1    4    4    0    0  0.16265126038E+02  0.52929737761E+02  0.45082282767E+03  0.45421067074E+03  0.00000000000E+00 0.  1.
         11    1    4    4    0    0 -0.39558124752E+01 -0.22171965086E+02  0.39636754407E+02  0.45588559838E+02  0.00000000000E+00 0. -1.
        -15    1    3    3    0    0  0.77804132461E+01  0.26754101110E+02 -0.27104668303E+03  0.27248078623E+03  0.17770000000E+01 0.  1.
         15    1    3    3    0    0 -0.20089726809E+02 -0.57511873785E+02 -0.21941289904E+03  0.22771998319E+03  0.17770000000E+01 0. -1.
</event>
<event>
 8    1  0.9532337E-006  0.5003607E+03  0.7546771E-02  0.9399003E-01
        -11   -1    0    0    0    0  0.00000000000E+00  0.00000000000E+00  0.50000000000E+03  0.50000000000E+03  0.00000000000E+00 0. -1.
         11   -1    0    0    0    0 -0.00000000000E+00 -0.00000000000E+00 -0.50000000000E+03  0.50000000000E+03  0.00000000000E+00 0. -1.
         23    2    1    2    0    0 -0.10898911504E+03  0.12306679145E+03  0.46332784417E+03  0.50036072206E+03  0.93081140112E+02 0.  0.
         23    2    1    2    0    0  0.10898911504E+03 -0.12306679145E+03 -0.46332784417E+03  0.49963927794E+03  0.89121571548E+02 0.  0.
        -11    1    4    4    0    0 -0.13369171346E+02 -0.34626372134E+01 -0.59051389411E+02  0.60644795245E+02  0.00000000000E+00 0. -1.
         11    1    4    4    0    0  0.12235828639E+03 -0.11960415423E+03 -0.40427645476E+03  0.43899448269E+03  0.00000000000E+00 0. -1.
        -15    1    3    3    0    0 -0.68821646567E+01  0.59843634396E+02  0.23213401011E+03  0.23982906652E+03  0.17770000000E+01 0.  1.
         15    1    3    3    0    0 -0.10210695038E+03  0.63223157053E+02  0.23119383406E+03  0.26053165555E+03  0.17770000000E+01 0. -1.
</event>
<event>
 8    1  0.9532337E-006  0.5002848E+03  0.7546771E-02  0.9399173E-01
        -11   -1    0    0    0    0  0.00000000000E+00  0.00000000000E+00  0.50000000000E+03  0.50000000000E+03  0.00000000000E+00 0.  1.
         11   -1    0    0    0    0 -0.00000000000E+00 -0.00000000000E+00 -0.50000000000E+03  0.50000000000E+03  0.00000000000E+00 0. -1.
         23    2    1    2    0    0  0.18778310294E+03 -0.17478456885E+03 -0.41784898073E+03  0.49971519818E+03  0.96464342297E+02 0.  0.
         23    2    1    2    0    0 -0.18778310294E+03  0.17478456885E+03  0.41784898073E+03  0.50028480182E+03  0.99372898589E+02 0.  0.
        -11    1    4    4    0    0 -0.18461497408E+03  0.16456026667E+03  0.42173280630E+03  0.48889807724E+03  0.00000000000E+00 0.  1.
         11    1    4    4    0    0 -0.31681288551E+01  0.10224302183E+02 -0.38838255662E+01  0.11386724577E+02  0.00000000000E+00 0. -1.
        -15    1    3    3    0    0  0.37684239562E+02 -0.29316537107E+02 -0.23169457375E+02  0.53099366695E+02  0.17770000000E+01 0.  1.
         15    1    3    3    0    0  0.15009886338E+03 -0.14546803174E+03 -0.39467952336E+03  0.44661583149E+03  0.17770000000E+01 0. -1.
</event>
<event>
 8    1  0.9532337E-006  0.5000444E+03  0.7546771E-02  0.9399710E-01
        -11   -1    0    0    0    0  0.00000000000E+00  0.00000000000E+00  0.50000000000E+03  0.50000000000E+03  0.00000000000E+00 0. -1.
         11   -1    0    0    0    0 -0.00000000000E+00 -0.00000000000E+00 -0.50000000000E+03  0.50000000000E+03  0.00000000000E+00 0.  1.
         23    2    1    2    0    0 -0.78888062500E+02  0.11258510686E+03 -0.47206410526E+03  0.49995555460E+03  0.90621765677E+02 0.  0.
         23    2    1    2    0    0  0.78888062500E+02 -0.11258510686E+03  0.47206410526E+03  0.50004444540E+03  0.91110895123E+02 0.  0.
        -11    1    4    4    0    0  0.18919652998E+02 -0.10191893892E+03  0.28126381033E+03  0.29975782623E+03  0.00000000000E+00 0. -1.
         11    1    4    4    0    0  0.59968409502E+02 -0.10666167941E+02  0.19080029492E+03  0.20028661917E+03  0.00000000000E+00 0.  1.
        -15    1    3    3    0    0 -0.73128897090E+02  0.40874548354E+02 -0.17123539116E+03  0.19063913871E+03  0.17770000000E+01 0.  1.
         15    1    3    3    0    0 -0.57591654102E+01  0.71710558509E+02 -0.30082871410E+03  0.30931641590E+03  0.17770000000E+01 0. -1.
</event>
<event>
 8    1  0.9532337E-006  0.5001368E+03  0.7546771E-02  0.9399504E-01
        -11   -1    0    0    0    0  0.00000000000E+00  0.00000000000E+00  0.50000000000E+03  0.50000000000E+03  0.00000000000E+00 0.  1.
         11   -1    0    0    0    0 -0.00000000000E+00 -0.00000000000E+00 -0.50000000000E+03  0.50000000000E+03  0.00000000000E+00 0. -1.
         23    2    1    2    0    0  0.10670155030E+03 -0.25743044134E+02 -0.47947391583E+03  0.49986324505E+03  0.88994958433E+02 0.  0.
         23    2    1    2    0    0 -0.10670155030E+03  0.25743044134E+02  0.47947391583E+03  0.50013675495E+03  0.90518575608E+02 0.  0.
        -11    1    4    4    0    0 -0.77715227490E+02  0.52954690180E+02  0.24718132959E+03  0.26446637876E+03  0.00000000000E+00 0.  1.
         11    1    4    4    0    0 -0.28986322809E+02 -0.27211646046E+02  0.23229258625E+03  0.23567037619E+03  0.00000000000E+00 0. -1.
        -15    1    3    3    0    0  0.81426860826E+02 -0.43807027290E+02 -0.43992494457E+03  0.44954032509E+03  0.17770000000E+01 0. -1.
         15    1    3    3    0    0  0.25274689473E+02  0.18063983155E+02 -0.39548971268E+02  0.50322919954E+02  0.17770000000E+01 0.  1.
</event>
<event>
 8    1  0.9532337E-006  0.5002012E+03  0.7546771E-02  0.9399360E-01
        -11   -1    0    0    0    0  0.00000000000E+00  0.00000000000E+00  0.50000000000E+03  0.50000000000E+03  0.00000000000E+00 0.  1.
         11   -1    0    0    0    0 -0.00000000000E+00 -0.00000000000E+00 -0.50000000000E+03  0.50000000000E+03  0.00000000000E+00 0. -1.
         23    2    1    2    0    0 -0.21920495488E+02 -0.24001287348E+03  0.42869806184E+03  0.49979881836E+03  0.89051350625E+02 0.  0.
         23    2    1    2    0    0  0.21920495488E+02  0.24001287348E+03 -0.42869806184E+03  0.50020118164E+03  0.91282563109E+02 0.  0.
        -11    1    4    4    0    0 -0.12687695662E+02  0.33458387385E+02 -0.20066736174E+02  0.41025787114E+02  0.00000000000E+00 0.  1.
         11    1    4    4    0    0  0.34608191150E+02  0.20655448610E+03 -0.40863132567E+03  0.45917539453E+03  0.00000000000E+00 0. -1.
        -15    1    3    3    0    0 -0.27312829124E+02 -0.23871272795E+03  0.37231385800E+03  0.44311457176E+03  0.17770000000E+01 0.  1.
         15    1    3    3    0    0  0.53923336361E+01 -0.13001455297E+01  0.56384203840E+02  0.56684246595E+02  0.17770000000E+01 0. -1.
</event>
<event>
 7    1  0.9532337E-006  0.1000000E+04  0.7546771E-02  0.8684367E-01
        -11   -1    0    0    0    0  0.00000000000E+00  0.00000000000E+00  0.50000000000E+03  0.50000000000E+03  0.00000000000E+00 0.  1.
         11   -1    0    0    0    0 -0.00000000000E+00 -0.00000000000E+00 -0.50000000000E+03  0.50000000000E+03  0.00000000000E+00 0. -1.
         23    2    1    2    0    0 -0.11623319007E+01  0.10282766253E+03  0.44344919913E+03  0.46447899591E+03  0.92296620916E+02 0.  0.
        -11    1    3    3    0    0  0.33106987798E+02  0.72003060664E+02  0.36488343474E+03  0.37339045828E+03  0.00000000000E+00 0.  1.
         11    1    3    3    0    0 -0.34269319699E+02  0.30824601870E+02  0.78565764387E+02  0.91088537625E+02  0.00000000000E+00 0. -1.
        -15    1    1    2    0    0 -0.56373053397E+02 -0.29592201623E+02  0.16855740425E+02  0.65885455606E+02  0.17770000000E+01 0.  1.
         15    1    1    2    0    0  0.57535385298E+02 -0.73235460911E+02 -0.46030493955E+03  0.46963554849E+03  0.17770000000E+01 0. -1.
</event>
<event>
 8    1  0.9532337E-006  0.5005281E+03  0.7546771E-02  0.9398629E-01
        -11   -1    0    0    0    0  0.00000000000E+00  0.00000000000E+00  0.50000000000E+03  0.50000000000E+03  0.00000000000E+00 0. -1.
         11   -1    0    0    0    0 -0.00000000000E+00 -0.00000000000E+00 -0.50000000000E+03  0.50000000000E+03  0.00000000000E+00 0.  1.
         23    2    1    2    0    0 -0.53723653799E+01 -0.13767992090E+01 -0.49198006769E+03  0.49947185663E+03  0.86005759523E+02 0.  0.
         23    2    1    2    0    0  0.53723653799E+01  0.13767992090E+01  0.49198006769E+03  0.50052814337E+03  0.91941706637E+02 0.  0.
        -11    1    4    4    0    0 -0.50980823088E+01 -0.36384006435E+02  0.98966096170E+02  0.10556549890E+03  0.00000000000E+00 0.  1.
         11    1    4    4    0    0  0.10470447689E+02  0.37760805644E+02  0.39301397152E+03  0.39496264447E+03  0.00000000000E+00 0. -1.
        -15    1    3    3    0    0 -0.18705987334E+02  0.22543451814E+02 -0.43737562966E+03  0.43835912256E+03  0.17770000000E+01 0.  1.
         15    1    3    3    0    0  0.13333621954E+02 -0.23920251023E+02 -0.54604438028E+02  0.61112734064E+02  0.17770000000E+01 0. -1.
</event>
<event>
 8    1  0.9532337E-006  0.5007494E+03  0.7546771E-02  0.9398134E-01
        -11   -1    0    0    0    0  0.00000000000E+00  0.00000000000E+00  0.50000000000E+03  0.50000000000E+03  0.00000000000E+00 0. -1.
         11   -1    0    0    0    0 -0.00000000000E+00 -0.00000000000E+00 -0.50000000000E+03  0.50000000000E+03  0.00000000000E+00 0. -1.
         23    2    1    2    0    0 -0.57235072608E+02 -0.10581131508E+02  0.48945648440E+03  0.50074939276E+03  0.88286410886E+02 0.  0.
         23    2    1    2    0    0  0.57235072608E+02  0.10581131508E+02 -0.48945648440E+03  0.49925060724E+03  0.79345477685E+02 0.  0.
        -11    1    4    4    0    0  0.49888194615E+02  0.41151776710E+02 -0.27501517116E+03  0.28251662793E+03  0.00000000000E+00 0. -1.
         11    1    4    4    0    0  0.73468779927E+01 -0.30570645202E+02 -0.21444131324E+03  0.21673397931E+03  0.00000000000E+00 0. -1.
        -15    1    3    3    0    0  0.11773846206E+02 -0.28792576865E+02  0.97935484863E+02  0.10277233510E+03  0.17770000000E+01 0.  1.
         15    1    3    3    0    0 -0.69008918814E+02  0.18211445357E+02  0.39152099954E+03  0.39797705766E+03  0.17770000000E+01 0. -1.
</event>
<event>
 7    1  0.9532337E-006  0.5293755E+03  0.7546771E-02  0.9336377E-01
        -11   -1    0    0    0    0  0.00000000000E+00  0.00000000000E+00  0.50000000000E+03  0.50000000000E+03  0.00000000000E+00 0. -1.
         11   -1    0    0    0    0 -0.00000000000E+00 -0.00000000000E+00 -0.50000000000E+03  0.50000000000E+03  0.00000000000E+00 0.  1.
         23    2    1    2    0    0  0.98020203368E+02 -0.19500410652E+03 -0.40700824796E+03  0.47062449196E+03  0.90538040067E+02 0.  0.
        -11    1    3    3    0    0 -0.63200503063E+01  0.44794446293E+01 -0.33634333051E+01  0.84451846432E+01  0.00000000000E+00 0. -1.
         11    1    3    3    0    0  0.10434025367E+03 -0.19948355115E+03 -0.40364481465E+03  0.46217930732E+03  0.00000000000E+00 0.  1.
        -15    1    1    2    0    0 -0.10311813053E+03  0.22594998811E+03  0.19695860222E+03  0.31698989682E+03  0.17770000000E+01 0. -1.
         15    1    1    2    0    0  0.50979271656E+01 -0.30945881586E+02  0.21004964574E+03  0.21238561122E+03  0.17770000000E+01 0.  1.
</event>
<event>
 8    1  0.9532337E-006  0.5000825E+03  0.7546771E-02  0.9399625E-01
        -11   -1    0    0    0    0  0.00000000000E+00  0.00000000000E+00  0.50000000000E+03  0.50000000000E+03  0.00000000000E+00 0. -1.
         11   -1    0    0    0    0 -0.00000000000E+00 -0.00000000000E+00 -0.50000000000E+03  0.50000000000E+03  0.00000000000E+00 0.  1.
         23    2    1    2    0    0 -0.15391568056E+02 -0.15453273654E+02 -0.49107551971E+03  0.50008252505E+03  0.91932919940E+02 0.  0.
         23    2    1    2    0    0  0.15391568056E+02  0.15453273654E+02  0.49107551971E+03  0.49991747495E+03  0.91030828081E+02 0.  0.
        -11    1    4    4    0    0  0.45512038360E+02 -0.16949072232E+02  0.28940082256E+03  0.29344752986E+03  0.00000000000E+00 0.  1.
         11    1    4    4    0    0 -0.30120470304E+02  0.32402345885E+02  0.20167469716E+03  0.20646994508E+03  0.00000000000E+00 0. -1.
        -15    1    3    3    0    0 -0.39110551667E+02 -0.35661227538E+02 -0.40644132111E+03  0.40987688839E+03  0.17770000000E+01 0.  1.
         15    1    3    3    0    0  0.23718983611E+02  0.20207953884E+02 -0.84634198598E+02  0.90205636659E+02  0.17770000000E+01 0. -1.
</event>
<event>
 8    1  0.9532337E-006  0.5001810E+03  0.7546771E-02  0.9399405E-01
        -11   -1    0    0    0    0  0.00000000000E+00  0.00000000000E+00  0.50000000000E+03  0.50000000000E+03  0.00000000000E+00 0.  1.
         11   -1    0    0    0    0 -0.00000000000E+00 -0.00000000000E+00 -0.50000000000E+03  0.50000000000E+03  0.00000000000E+00 0. -1.
         23    2    1    2    0    0  0.24288148369E+03  0.10606136157E+03  0.41444051643E+03  0.50018103808E+03  0.90441703106E+02 0.  0.
         23    2    1    2    0    0 -0.24288148369E+03 -0.10606136157E+03 -0.41444051643E+03  0.49981896192E+03  0.88417337154E+02 0.  0.
        -11    1    4    4    0    0 -0.20693608600E+03 -0.11583248262E+03 -0.38568565498E+03  0.45276167260E+03  0.00000000000E+00 0. -1.
         11    1    4    4    0    0 -0.35945397687E+02  0.97711210579E+01 -0.28754861443E+02  0.47057289321E+02  0.00000000000E+00 0.  1.
        -15    1    3    3    0    0  0.24508801541E+03  0.92473494609E+02  0.40805252428E+03  0.48490153928E+03  0.17770000000E+01 0.  1.
         15    1    3    3    0    0 -0.22065317195E+01  0.13587866957E+02  0.63879921479E+01  0.15279498793E+02  0.17770000000E+01 0. -1.
</event>
<event>
 8    1  0.9532337E-006  0.5001711E+03  0.7546771E-02  0.9399427E-01
        -11   -1    0    0    0    0  0.00000000000E+00  0.00000000000E+00  0.50000000000E+03  0.50000000000E+03  0.00000000000E+00 0.  1.
         11   -1    0    0    0    0 -0.00000000000E+00 -0.00000000000E+00 -0.50000000000E+03  0.50000000000E+03  0.00000000000E+00 0. -1.
         23    2    1    2    0    0  0.41072948135E+03  0.26997653980E+03  0.46987624866E+00  0.50017110651E+03  0.92654606560E+02 0.  0.
         23    2    1    2    0    0 -0.41072948135E+03 -0.26997653980E+03 -0.46987624866E+00  0.49982889349E+03  0.90789113283E+02 0.  0.
        -11    1    4    4    0    0 -0.28706226527E+03 -0.22351063495E+03  0.27281695926E+02  0.36483700335E+03  0.00000000000E+00 0.  1.
         11    1    4    4    0    0 -0.12366721607E+03 -0.46465904849E+02 -0.27751572174E+02  0.13499189014E+03  0.00000000000E+00 0. -1.
        -15    1    3    3    0    0  0.18214339557E+02  0.42130176296E+02 -0.56080657469E+01  0.46274421128E+02  0.17770000000E+01 0.  1.
         15    1    3    3    0    0  0.39251514179E+03  0.22784636351E+03  0.60779419956E+01  0.45389668539E+03  0.17770000000E+01 0. -1.
</event>
<event>
 8    1  0.9532337E-006  0.5001028E+03  0.7546771E-02  0.9399580E-01
        -11   -1    0    0    0    0  0.00000000000E+00  0.00000000000E+00  0.50000000000E+03  0.50000000000E+03  0.00000000000E+00 0.  1.
         11   -1    0    0    0    0 -0.00000000000E+00 -0.00000000000E+00 -0.50000000000E+03  0.50000000000E+03  0.00000000000E+00 0. -1.
         23    2    1    2    0    0  0.31828194355E+02 -0.33814297967E+01 -0.49083974352E+03  0.50010281375E+03  0.90303391271E+02 0.  0.
         23    2    1    2    0    0 -0.31828194355E+02  0.33814297967E+01  0.49083974352E+03  0.49989718625E+03  0.89157585122E+02 0.  0.
        -11    1    4    4    0    0 -0.26626836296E+02  0.10361734376E+02  0.41001731123E+02  0.49974952782E+02  0.00000000000E+00 0. -1.
         11    1    4    4    0    0 -0.52013580586E+01 -0.69803045790E+01  0.44983801240E+03  0.44992223347E+03  0.00000000000E+00 0.  1.
        -15    1    3    3    0    0  0.28986045631E+02  0.17837579805E+02 -0.62199900833E+02  0.70924999029E+02  0.17770000000E+01 0.  1.
         15    1    3    3    0    0  0.28421487238E+01 -0.21219009602E+02 -0.42863984269E+03  0.42917781472E+03  0.17770000000E+01 0. -1.
</event>
<event>
 8    1  0.9532337E-006  0.5001707E+03  0.7546771E-02  0.9399428E-01
        -11   -1    0    0    0    0  0.00000000000E+00  0.00000000000E+00  0.50000000000E+03  0.50000000000E+03  0.00000000000E+00 0.  1.
         11   -1    0    0    0    0 -0.00000000000E+00 -0.00000000000E+00 -0.50000000000E+03  0.50000000000E+03  0.00000000000E+00 0. -1.
         23    2    1    2    0    0 -0.29766007083E+03 -0.13308396103E+03  0.36839077166E+03  0.50017065522E+03  0.90255555223E+02 0.  0.
         23    2    1    2    0    0  0.29766007083E+03  0.13308396103E+03 -0.36839077166E+03  0.49982934478E+03  0.88344523381E+02 0.  0.
        -11    1    4    4    0    0  0.16822032146E+03  0.57489954466E+02 -0.13836433298E+03  0.22527285690E+03  0.00000000000E+00 0. -1.
         11    1    4    4    0    0  0.12943974938E+03  0.75594006562E+02 -0.23002643868E+03  0.27455648788E+03  0.00000000000E+00 0.  1.
        -15    1    3    3    0    0 -0.13303226127E+03 -0.46528698032E+02  0.96774757380E+02  0.17097079773E+03  0.17770000000E+01 0.  1.
         15    1    3    3    0    0 -0.16462780956E+03 -0.86555262996E+02  0.27161601428E+03  0.32919985749E+03  0.17770000000E+01 0. -1.
</event>
<event>
 8    1  0.9532337E-006  0.5002516E+03  0.7546771E-02  0.9399247E-01
        -11   -1    0    0    0    0  0.00000000000E+00  0.00000000000E+00  0.50000000000E+03  0.50000000000E+03  0.00000000000E+00 0. -1.
         11   -1    0    0    0    0 -0.00000000000E+00 -0.00000000000E+00 -0.50000000000E+03  0.50000000000E+03  0.00000000000E+00 0.  1.
         23    2    1    2    0    0 -0.22945877943E+02  0.12719561321E+03 -0.47459145087E+03  0.49974839657E+03  0.88352573810E+02 0.  0.
         23    2    1    2    0    0  0.22945877943E+02 -0.12719561321E+03  0.47459145087E+03  0.50025160343E+03  0.91155823475E+02 0.  0.
        -11    1    4    4    0    0  0.48811601829E+02 -0.12120737396E+03  0.41311115637E+03  0.43328354169E+03  0.00000000000E+00 0. -1.
         11    1    4    4    0    0 -0.25865723885E+02 -0.59882392498E+01  0.61480294500E+02  0.66968061740E+02  0.00000000000E+00 0.  1.
        -15    1    3    3    0    0  0.10736469732E+01  0.71406566693E+02 -0.38449605750E+03  0.39107598551E+03  0.17770000000E+01 0.  1.
         15    1    3    3    0    0 -0.24019524917E+02  0.55789046521E+02 -0.90095393377E+02  0.10867241106E+03  0.17770000000E+01 0. -1.
</event>
<event>
 8    1  0.9532337E-006  0.5003111E+03  0.7546771E-02  0.9399114E-01
        -11   -1    0    0    0    0  0.00000000000E+00  0.00000000000E+00  0.50000000000E+03  0.50000000000E+03  0.00000000000E+00 0.  1.
         11   -1    0    0    0    0 -0.00000000000E+00 -0.00000000000E+00 -0.50000000000E+03  0.50000000000E+03  0.00000000000E+00 0. -1.
         23    2    1    2    0    0 -0.10703511947E+02 -0.23357657059E+02  0.49045862375E+03  0.50031114274E+03  0.95401428846E+02 0.  0.
         23    2    1    2    0    0  0.10703511947E+02  0.23357657059E+02 -0.49045862375E+03  0.49968885726E+03  0.92082284669E+02 0.  0.
        -11    1    4    4    0    0 -0.74907483698E+01 -0.30700426153E+02 -0.94513695074E+02  0.99656741035E+02  0.00000000000E+00 0.  1.
         11    1    4    4    0    0  0.18194260317E+02  0.54058083213E+02 -0.39594492868E+03  0.40003211623E+03  0.00000000000E+00 0. -1.
        -15    1    3    3    0    0  0.23592349681E+02  0.20597778669E+02  0.30598187228E+03  0.30758564879E+03  0.17770000000E+01 0.  1.
         15    1    3    3    0    0 -0.34295861628E+02 -0.43955435729E+02  0.18447675147E+03  0.19272549394E+03  0.17770000000E+01 0. -1.
</event>
<event>
 8    1  0.9532337E-006  0.5007710E+03  0.7546771E-02  0.9398086E-01
        -11   -1    0    0    0    0  0.00000000000E+00  0.00000000000E+00  0.50000000000E+03  0.50000000000E+03  0.00000000000E+00 0. -1.
         11   -1    0    0    0    0 -0.00000000000E+00 -0.00000000000E+00 -0.50000000000E+03  0.50000000000E+03  0.00000000000E+00 0.  1.
         23    2    1    2    0    0 -0.16193422304E+02  0.25049634350E+01 -0.49043961750E+03  0.50077103208E+03  0.99860434526E+02 0.  0.
         23    2    1    2    0    0  0.16193422304E+02 -0.25049634350E+01  0.49043961750E+03  0.49922896792E+03  0.91815261428E+02 0.  0.
        -11    1    4    4    0    0 -0.28427005629E+02  0.13499617131E+02  0.34104659308E+03  0.34249542036E+03  0.00000000000E+00 0. -1.
         11    1    4    4    0    0  0.44620427932E+02 -0.16004580566E+02  0.14939302442E+03  0.15673354757E+03  0.00000000000E+00 0.  1.
        -15    1    3    3    0    0  0.36351791841E+02 -0.21877927461E+02 -0.23857735168E+03  0.24232706605E+03  0.17770000000E+01 0. -1.
         15    1    3    3    0    0 -0.52545214145E+02  0.24382890896E+02 -0.25186226583E+03  0.25844396602E+03  0.17770000000E+01 0.  1.
</event>
<event>
 8    1  0.9532337E-006  0.5001258E+03  0.7546771E-02  0.9399528E-01
        -11   -1    0    0    0    0  0.00000000000E+00  0.00000000000E+00  0.50000000000E+03  0.50000000000E+03  0.00000000000E+00 0.  1.
         11   -1    0    0    0    0 -0.00000000000E+00 -0.00000000000E+00 -0.50000000000E+03  0.50000000000E+03  0.00000000000E+00 0. -1.
         23    2    1    2    0    0  0.57022996739E+01 -0.81091080700E+01 -0.49135852751E+03  0.49987416279E+03  0.91338393950E+02 0.  0.
         23    2    1    2    0    0 -0.57022996739E+01  0.81091080700E+01  0.49135852751E+03  0.50012583721E+03  0.92705860862E+02 0.  0.
        -11    1    4    4    0    0  0.26055008782E+02 -0.28957867465E+01  0.41986362452E+02  0.49498522154E+02  0.00000000000E+00 0. -1.
         11    1    4    4    0    0 -0.31757308456E+02  0.11004894817E+02  0.44937216506E+03  0.45062731506E+03  0.00000000000E+00 0.  1.
        -15    1    3    3    0    0  0.12787877648E+02 -0.36378811656E+02 -0.43201809743E+03  0.43373925577E+03  0.17770000000E+01 0. -1.
         15    1    3    3    0    0 -0.70855779740E+01  0.28269703586E+02 -0.59340430075E+02  0.66134907020E+02  0.17770000000E+01 0.  1.
</event>
<event>
 8    1  0.9532337E-006  0.5000951E+03  0.7546771E-02  0.9399597E-01
        -11   -1    0    0    0    0  0.00000000000E+00  0.00000000000E+00  0.50000000000E+03  0.50000000000E+03  0.00000000000E+00 0. -1.
         11   -1    0    0    0    0 -0.00000000000E+00 -0.00000000000E+00 -0.50000000000E+03  0.50000000000E+03  0.00000000000E+00 0.  1.
         23    2    1    2    0    0 -0.26890504119E+02  0.46890436577E+01 -0.49096272403E+03  0.49990489981E+03  0.90085659926E+02 0.  0.
         23    2    1    2    0    0  0.26890504119E+02 -0.46890436577E+01  0.49096272403E+03  0.50009510019E+03  0.91135209970E+02 0.  0.
        -11    1    4    4    0    0  0.16390431312E+02  0.38845631118E+02  0.34076075888E+03  0.34335917650E+03  0.00000000000E+00 0.  1.
         11    1    4    4    0    0  0.10500072807E+02 -0.43534674776E+02  0.15020196515E+03  0.15673592368E+03  0.00000000000E+00 0. -1.
        -15    1    3    3    0    0 -0.24870482738E+02  0.22721083939E+02 -0.47336597448E+03  0.47456642537E+03  0.17770000000E+01 0.  1.
         15    1    3    3    0    0 -0.20200213811E+01 -0.18032040281E+02 -0.17596749554E+02  0.25338474440E+02  0.17770000000E+01 0. -1.
</event>
<event>
 8    1  0.9532337E-006  0.5000508E+03  0.7546771E-02  0.9399696E-01
        -11   -1    0    0    0    0  0.00000000000E+00  0.00000000000E+00  0.50000000000E+03  0.50000000000E+03  0.00000000000E+00 0. -1.
         11   -1    0    0    0    0 -0.00000000000E+00 -0.00000000000E+00 -0.50000000000E+03  0.50000000000E+03  0.00000000000E+00 0.  1.
         23    2    1    2    0    0 -0.69214541054E+02  0.41577999377E+02 -0.48491803568E+03  0.50005082855E+03  0.91574816883E+02 0.  0.
         23    2    1    2    0    0  0.69214541054E+02 -0.41577999377E+02  0.48491803568E+03  0.49994917145E+03  0.91018075035E+02 0.  0.
        -11    1    4    4    0    0  0.22885673130E+02 -0.64363254344E+02  0.31684453839E+03  0.32412473533E+03  0.00000000000E+00 0. -1.
         11    1    4    4    0    0  0.46328867924E+02  0.22785254967E+02  0.16807349729E+03  0.17582443612E+03  0.00000000000E+00 0.  1.
        -15    1    3    3    0    0 -0.28489047073E+02  0.21892668285E+02 -0.44084756135E+02  0.56899368892E+02  0.17770000000E+01 0. -1.
         15    1    3    3    0    0 -0.40725493981E+02  0.19685331092E+02 -0.44083327954E+03  0.44315145966E+03  0.17770000000E+01 0.  1.
</event>
<event>
 7    1  0.9532337E-006  0.5284649E+03  0.7546771E-02  0.9338277E-01
        -11   -1    0    0    0    0  0.00000000000E+00  0.00000000000E+00  0.50000000000E+03  0.50000000000E+03  0.00000000000E+00 0.  1.
         11   -1    0    0    0    0 -0.00000000000E+00 -0.00000000000E+00 -0.50000000000E+03  0.50000000000E+03  0.00000000000E+00 0. -1.
         23    2    1    2    0    0  0.35511217215E+03 -0.98703707101E+02  0.27992551874E+03  0.47153512105E+03  0.90221936031E+02 0.  0.
        -11    1    3    3    0    0  0.99337561781E+01 -0.24409224771E+02  0.20679937871E+02  0.33498501400E+02  0.00000000000E+00 0. -1.
         11    1    3    3    0    0  0.34517841597E+03 -0.74294482330E+02  0.25924558087E+03  0.43803661965E+03  0.00000000000E+00 0.  1.
        -15    1    1    2    0    0 -0.98557560794E+02  0.95488950165E+02  0.14409700456E+02  0.13799467232E+03  0.17770000000E+01 0.  1.
         15    1    1    2    0    0 -0.25655461136E+03  0.32147569357E+01 -0.29433521920E+03  0.39047020662E+03  0.17770000000E+01 0. -1.
</event>
<event>
 8    1  0.9532337E-006  0.5000040E+03  0.7546771E-02  0.9399801E-01
        -11   -1    0    0    0    0  0.00000000000E+00  0.00000000000E+00  0.50000000000E+03  0.50000000000E+03  0.00000000000E+00 0. -1.
         11   -1    0    0    0    0 -0.00000000000E+00 -0.00000000000E+00 -0.50000000000E+03  0.50000000000E+03  0.00000000000E+00 0.  1.
         23    2    1    2    0    0 -0.17371370005E+02 -0.14136728798E+02 -0.49128783966E+03  0.50000403166E+03  0.90214625670E+02 0.  0.
         23    2    1    2    0    0  0.17371370005E+02  0.14136728798E+02  0.49128783966E+03  0.49999596834E+03  0.90169924900E+02 0.  0.
        -11    1    4    4    0    0 -0.81409999313E+01  0.44442024495E+02  0.36106851712E+03  0.36388438202E+03  0.00000000000E+00 0. -1.
         11    1    4    4    0    0  0.25512369936E+02 -0.30305295697E+02  0.13021932254E+03  0.13611158632E+03  0.00000000000E+00 0.  1.
        -15    1    3    3    0    0  0.26650580197E+02 -0.22043284259E+02 -0.93530871439E+02  0.99736359703E+02  0.17770000000E+01 0. -1.
         15    1    3    3    0    0 -0.44021950201E+02  0.79065554610E+01 -0.39775696822E+03  0.40026767196E+03  0.17770000000E+01 0.  1.
</event>
<event>
 8    1  0.9532337E-006  0.5000500E+03  0.7546771E-02  0.9399698E-01
        -11   -1    0    0    0    0  0.00000000000E+00  0.00000000000E+00  0.50000000000E+03  0.50000000000E+03  0.00000000000E+00 0.  1.
         11   -1    0    0    0    0 -0.00000000000E+00 -0.00000000000E+00 -0.50000000000E+03  0.50000000000E+03  0.00000000000E+00 0. -1.
         23    2    1    2    0    0  0.79991560149E+02  0.42193062610E+02 -0.48266347795E+03  0.50004995993E+03  0.94377037741E+02 0.  0.
         23    2    1    2    0    0 -0.79991560149E+02 -0.42193062610E+02  0.48266347795E+03  0.49995004007E+03  0.93846179412E+02 0.  0.
        -11    1    4    4    0    0 -0.10145478897E+03 -0.38558866622E+02  0.40573127642E+03  0.41999729650E+03  0.00000000000E+00 0.  1.
         11    1    4    4    0    0  0.21463228825E+02 -0.36341959881E+01  0.76932201531E+02  0.79952743571E+02  0.00000000000E+00 0. -1.
        -15    1    3    3    0    0  0.48351355286E+02  0.14168114544E+02 -0.42784922917E+03  0.43080936579E+03  0.17770000000E+01 0. -1.
         15    1    3    3    0    0  0.31640204863E+02  0.28024948066E+02 -0.54814248783E+02  0.69240594138E+02  0.17770000000E+01 0.  1.
</event>
<event>
 8    1  0.9532337E-006  0.5010707E+03  0.7546771E-02  0.9397417E-01
        -11   -1    0    0    0    0  0.00000000000E+00  0.00000000000E+00  0.50000000000E+03  0.50000000000E+03  0.00000000000E+00 0.  1.
         11   -1    0    0    0    0 -0.00000000000E+00 -0.00000000000E+00 -0.50000000000E+03  0.50000000000E+03  0.00000000000E+00 0. -1.
         23    2    1    2    0    0  0.77489996425E+02  0.91466474927E+02  0.47563505955E+03  0.50107065906E+03  0.10233415813E+03 0.  0.
         23    2    1    2    0    0 -0.77489996425E+02 -0.91466474927E+02 -0.47563505955E+03  0.49892934094E+03  0.91274102543E+02 0.  0.
        -11    1    4    4    0    0 -0.87723363430E+01 -0.39809211721E+02 -0.49097301365E+02  0.63814357508E+02  0.00000000000E+00 0.  1.
         11    1    4    4    0    0 -0.68717660082E+02 -0.51657263206E+02 -0.42653775818E+03  0.43511498343E+03  0.00000000000E+00 0. -1.
        -15    1    3    3    0    0  0.88108097706E+02  0.29671969263E+02  0.32103193520E+03  0.33422765264E+03  0.17770000000E+01 0.  1.
         15    1    3    3    0    0 -0.10618101280E+02  0.61794505664E+02  0.15460312435E+03  0.16684300642E+03  0.17770000000E+01 0. -1.
</event>
<event>
 7    1  0.1873417E-005  0.5275764E+03  0.7546771E-02  0.9340135E-01
        -11   -1    0    0    0    0  0.00000000000E+00  0.00000000000E+00  0.50000000000E+03  0.50000000000E+03  0.00000000000E+00 0. -1.
         11   -1    0    0    0    0 -0.00000000000E+00 -0.00000000000E+00 -0.50000000000E+03  0.50000000000E+03  0.00000000000E+00 0.  1.
         23    2    1    2    0    0 -0.39113479886E+02 -0.12664680659E+03 -0.44414811111E+03  0.47242359382E+03  0.91363173466E+02 0.  0.
        -11    1    3    3    0    0 -0.60358948221E+02 -0.57261354587E+02 -0.17672338782E+03  0.19532849552E+03  0.00000000000E+00 0. -1.
         11    1    3    3    0    0  0.21245468335E+02 -0.69385452007E+02 -0.26742472330E+03  0.27709509831E+03  0.00000000000E+00 0.  1.
        -15    1    1    2    0    0 -0.12709805863E+02  0.17314398865E+03  0.41896742536E+03  0.45351652804E+03  0.17770000000E+01 0. -1.
         15    1    1    2    0    0  0.51823285749E+02 -0.46497182052E+02  0.25180685756E+02  0.74059878131E+02  0.17770000000E+01 0.  1.
</event>
<event>
 8    1  0.9532337E-006  0.5001401E+03  0.7546771E-02  0.9399496E-01
        -11   -1    0    0    0    0  0.00000000000E+00  0.00000000000E+00  0.50000000000E+03  0.50000000000E+03  0.00000000000E+00 0.  1.
         11   -1    0    0    0    0 -0.00000000000E+00 -0.00000000000E+00 -0.50000000000E+03  0.50000000000E+03  0.00000000000E+00 0. -1.
         23    2    1    2    0    0  0.29525989418E+03  0.17844862952E+03  0.35049431573E+03  0.49985989837E+03  0.89394262385E+02 0.  0.
         23    2    1    2    0    0 -0.29525989418E+03 -0.17844862952E+03 -0.35049431573E+03  0.50014010163E+03  0.90947992921E+02 0.  0.
        -11    1    4    4    0    0 -0.21846100640E+03 -0.14475289256E+03 -0.31313780448E+03  0.40833062072E+03  0.00000000000E+00 0. -1.
         11    1    4    4    0    0 -0.76798887779E+02 -0.33695736958E+02 -0.37356511249E+02  0.91809480915E+02  0.00000000000E+00 0.  1.
        -15    1    3    3    0    0  0.16302614605E+03  0.13218286584E+03  0.25517283426E+03  0.33040303780E+03  0.17770000000E+01 0.  1.
         15    1    3    3    0    0  0.13223374813E+03  0.46265763681E+02  0.95321481473E+02  0.16945686056E+03  0.17770000000E+01 0. -1.
</event>
<event>
 8    1  0.9532337E-006  0.5010260E+03  0.7546771E-02  0.9397517E-01
        -11   -1    0    0    0    0  0.00000000000E+00  0.00000000000E+00  0.50000000000E+03  0.50000000000E+03  0.00000000000E+00 0. -1.
         11   -1    0    0    0    0 -0.00000000000E+00 -0.00000000000E+00 -0.50000000000E+03  0.50000000000E+03  0.00000000000E+00 0.  1.
         23    2    1    2    0    0 -0.40758552819E+02  0.21060535284E+02 -0.49024169025E+03  0.50102596535E+03  0.92656879529E+02 0.  0.
         23    2    1    2    0    0  0.40758552819E+02 -0.21060535284E+02  0.49024169025E+03  0.49897403465E+03  0.80829243600E+02 0.  0.
        -11    1    4    4    0    0  0.68732198583E+01 -0.18372360054E+02  0.21900683799E+02  0.29401100592E+02  0.00000000000E+00 0.  1.
         11    1    4    4    0    0  0.33885332960E+02 -0.26881752307E+01  0.46834100645E+03  0.46957293406E+03  0.00000000000E+00 0. -1.
        -15    1    3    3    0    0 -0.74314652851E+01 -0.30385665025E+02 -0.28778978818E+03  0.28949030247E+03  0.17770000000E+01 0.  1.
         15    1    3    3    0    0 -0.33327087533E+02  0.51446200310E+02 -0.20245190207E+03  0.21153566288E+03  0.17770000000E+01 0. -1.
</event>
<event>
 8    1  0.9532337E-006  0.5000219E+03  0.7546771E-02  0.9399761E-01
        -11   -1    0    0    0    0  0.00000000000E+00  0.00000000000E+00  0.50000000000E+03  0.50000000000E+03  0.00000000000E+00 0.  1.
         11   -1    0    0    0    0 -0.00000000000E+00 -0.00000000000E+00 -0.50000000000E+03  0.50000000000E+03  0.00000000000E+00 0. -1.
         23    2    1    2    0    0  0.76681010796E+01 -0.83783091506E+01 -0.49153322153E+03  0.50002187384E+03  0.91038292028E+02 0.  0.
         23    2    1    2    0    0 -0.76681010796E+01  0.83783091506E+01  0.49153322153E+03  0.49997812616E+03  0.90797703343E+02 0.  0.
        -11    1    4    4    0    0  0.17049524911E+02  0.35793266817E+02  0.38877232816E+03  0.39078864798E+03  0.00000000000E+00 0.  1.
         11    1    4    4    0    0 -0.24717625991E+02 -0.27414957666E+02  0.10276089337E+03  0.10918947818E+03  0.00000000000E+00 0. -1.
        -15    1    3    3    0    0  0.30929480964E+02 -0.23444227245E+02 -0.96694537066E+02  0.10420775312E+03  0.17770000000E+01 0.  1.
         15    1    3    3    0    0 -0.23261379884E+02  0.15065918095E+02 -0.39483868446E+03  0.39581412072E+03  0.17770000000E+01 0. -1.
</event>
<event>
 8    1  0.9532337E-006  0.5003607E+03  0.7546771E-02  0.9399003E-01
        -11   -1    0    0    0    0  0.00000000000E+00  0.00000000000E+00  0.50000000000E+03  0.50000000000E+03  0.00000000000E+00 0. -1.
         11   -1    0    0    0    0 -0.00000000000E+00 -0.00000000000E+00 -0.50000000000E+03  0.50000000000E+03  0.00000000000E+00 0.  1.
         23    2    1    2    0    0  0.28486159681E+03  0.29053460264E+03  0.27679040512E+03  0.50036068534E+03  0.90506366594E+02 0.  0.
         23    2    1    2    0    0 -0.28486159681E+03 -0.29053460264E+03 -0.27679040512E+03  0.49963931466E+03  0.86429345207E+02 0.  0.
        -11    1    4    4    0    0 -0.24734293449E+03 -0.28497365869E+03 -0.24280710841E+03  0.44871350022E+03  0.00000000000E+00 0.  1.
         11    1    4    4    0    0 -0.37518662327E+02 -0.55609439512E+01 -0.33983296714E+02  0.50925814436E+02  0.00000000000E+00 0. -1.
        -15    1    3    3    0    0  0.37971037845E+02  0.15949129497E+02  0.43093138340E+01  0.41447585713E+02  0.17770000000E+01 0.  1.
         15    1    3    3    0    0  0.24689055897E+03  0.27458547315E+03  0.27248109129E+03  0.45891309963E+03  0.17770000000E+01 0. -1.
</event>
<event>
 8    1  0.9532337E-006  0.5001221E+03  0.7546771E-02  0.9399536E-01
        -11   -1    0    0    0    0  0.00000000000E+00  0.00000000000E+00  0.50000000000E+03  0.50000000000E+03  0.00000000000E+00 0.  1.
         11   -1    0    0    0    0 -0.00000000000E+00 -0.00000000000E+00 -0.50000000000E+03  0.50000000000E+03  0.00000000000E+00 0. -1.
         23    2    1    2    0    0  0.37169828337E+03  0.31579434971E+03  0.57067550504E+02  0.49987786059E+03  0.93463816633E+02 0.  0.
         23    2    1    2    0    0 -0.37169828337E+03 -0.31579434971E+03 -0.57067550504E+02  0.50012213941E+03  0.94761615880E+02 0.  0.
        -11    1    4    4    0    0 -0.28449359697E+03 -0.28898743344E+03 -0.42716696225E+02  0.40776838958E+03  0.00000000000E+00 0.  1.
         11    1    4    4    0    0 -0.87204686398E+02 -0.26806916263E+02 -0.14350854279E+02  0.92353749831E+02  0.00000000000E+00 0. -1.
        -15    1    3    3    0    0  0.25204413898E+03  0.23693813901E+03  0.85037836718E+00  0.34593324585E+03  0.17770000000E+01 0. -1.
         15    1    3    3    0    0  0.11965414439E+03  0.78856210697E+02  0.56217172137E+02  0.15394461474E+03  0.17770000000E+01 0.  1.
</event>
<event>
 8    1  0.9532337E-006  0.5006100E+03  0.7546771E-02  0.9398446E-01
        -11   -1    0    0    0    0  0.00000000000E+00  0.00000000000E+00  0.50000000000E+03  0.50000000000E+03  0.00000000000E+00 0. -1.
         11   -1    0    0    0    0 -0.00000000000E+00 -0.00000000000E+00 -0.50000000000E+03  0.50000000000E+03  0.00000000000E+00 0.  1.
         23    2    1    2    0    0  0.61411406889E+02 -0.96856948658E+02 -0.47770944882E+03  0.50060995057E+03  0.96184072088E+02 0.  0.
         23    2    1    2    0    0 -0.61411406889E+02  0.96856948658E+02  0.47770944882E+03  0.49939004943E+03  0.89618494599E+02 0.  0.
        -11    1    4    4    0    0 -0.31173671218E+01 -0.16870124610E+02  0.43372236385E+02  0.46641933613E+02  0.00000000000E+00 0.  1.
         11    1    4    4    0    0 -0.58294039767E+02  0.11372707327E+03  0.43433721243E+03  0.45274811581E+03  0.00000000000E+00 0. -1.
        -15    1    3    3    0    0 -0.47230803443E+01 -0.57468283029E+02 -0.10284828427E+03  0.11792301874E+03  0.17770000000E+01 0. -1.
         15    1    3    3    0    0  0.66134487233E+02 -0.39388665629E+02 -0.37486116455E+03  0.38268693183E+03  0.17770000000E+01 0.  1.
</event>
<event>
 8    1  0.9532337E-006  0.5002948E+03  0.7546771E-02  0.9399150E-01
        -11   -1    0    0    0    0  0.00000000000E+00  0.00000000000E+00  0.50000000000E+03  0.50000000000E+03  0.00000000000E+00 0.  1.
         11   -1    0    0    0    0 -0.00000000000E+00 -0.00000000000E+00 -0.50000000000E+03  0.50000000000E+03  0.00000000000E+00 0. -1.
         23    2    1    2    0    0 -0.11866448633E+03 -0.11463481690E+03 -0.46328852294E+03  0.49970518990E+03  0.88581147935E+02 0.  0.
         23    2    1    2    0    0  0.11866448633E+03  0.11463481690E+03  0.46328852294E+03  0.50029481010E+03  0.91849006315E+02 0.  0.
        -11    1    4    4    0    0  0.54968333809E+02  0.10341641013E+03  0.22856556206E+03  0.25682423516E+03  0.00000000000E+00 0.  1.
         11    1    4    4    0    0  0.63696152521E+02  0.11218406775E+02  0.23472296088E+03  0.24347057494E+03  0.00000000000E+00 0. -1.
        -15    1    3    3    0    0 -0.97256369231E+02 -0.12406747116E+03 -0.34788066193E+03  0.38193671129E+03  0.17770000000E+01 0. -1.
         15    1    3    3    0    0 -0.21408117099E+02  0.94326542583E+01 -0.11540786101E+03  0.11776847861E+03  0.17770000000E+01 0.  1.
</event>
<event>
 8    1  0.9532337E-006  0.5001801E+03  0.7546771E-02  0.9399407E-01
        -11   -1    0    0    0    0  0.00000000000E+00  0.00000000000E+00  0.50000000000E+03  0.50000000000E+03  0.00000000000E+00 0.  1.
         11   -1    0    0    0    0 -0.00000000000E+00 -0.00000000000E+00 -0.50000000000E+03  0.50000000000E+03  0.00000000000E+00 0. -1.
         23    2    1    2    0    0  0.61312355541E+02  0.29191303419E+03  0.39083336940E+03  0.50018006519E+03  0.91961679588E+02 0.  0.
         23    2    1    2    0    0 -0.61312355541E+02 -0.29191303419E+03 -0.39083336940E+03  0.49981993481E+03  0.89982332297E+02 0.  0.
        -11    1    4    4    0    0 -0.73094403919E+02 -0.13306915059E+03 -0.20426190357E+03  0.25450563053E+03  0.00000000000E+00 0. -1.
         11    1    4    4    0    0  0.11782048378E+02 -0.15884388360E+03 -0.18657146583E+03  0.24531430427E+03  0.00000000000E+00 0.  1.
        -15    1    3    3    0    0  0.93215823785E+01  0.23206046545E+01  0.45331882723E+02  0.46372561113E+02  0.17770000000E+01 0. -1.
         15    1    3    3    0    0  0.51990773163E+02  0.28959242953E+03  0.34550148667E+03  0.45380750408E+03  0.17770000000E+01 0.  1.
</event>
<event>
 8    1  0.9532337E-006  0.5005873E+03  0.7546771E-02  0.9398497E-01
        -11   -1    0    0    0    0  0.00000000000E+00  0.00000000000E+00  0.50000000000E+03  0.50000000000E+03  0.00000000000E+00 0. -1.
         11   -1    0    0    0    0 -0.00000000000E+00 -0.00000000000E+00 -0.50000000000E+03  0.50000000000E+03  0.00000000000E+00 0.  1.
         23    2    1    2    0    0 -0.88365713227E+01  0.21493509962E+01 -0.49083363616E+03  0.50058726319E+03  0.97914477845E+02 0.  0.
         23    2    1    2    0    0  0.88365713227E+01 -0.21493509962E+01  0.49083363616E+03  0.49941273681E+03  0.91720873305E+02 0.  0.
        -11    1    4    4    0    0  0.74032755884E+01 -0.15752634806E+02  0.13878052345E+02  0.22261049608E+02  0.00000000000E+00 0.  1.
         11    1    4    4    0    0  0.14332957343E+01  0.13603283810E+02  0.47695558382E+03  0.47715168721E+03  0.00000000000E+00 0. -1.
        -15    1    3    3    0    0 -0.77802246271E+01  0.40002795021E+02 -0.10116940840E+03  0.10908328208E+03  0.17770000000E+01 0. -1.
         15    1    3    3    0    0 -0.10563466956E+01 -0.37853444024E+02 -0.38966422776E+03  0.39150398110E+03  0.17770000000E+01 0.  1.
</event>
<event>
 8    1  0.9532337E-006  0.5000615E+03  0.7546771E-02  0.9399672E-01
        -11   -1    0    0    0    0  0.00000000000E+00  0.00000000000E+00  0.50000000000E+03  0.50000000000E+03  0.00000000000E+00 0.  1.
         11   -1    0    0    0    0 -0.00000000000E+00 -0.00000000000E+00 -0.50000000000E+03  0.50000000000E+03  0.00000000000E+00 0. -1.
         23    2    1    2    0    0  0.17698066173E+02 -0.54547231299E+01 -0.49123568951E+03  0.50006151423E+03  0.91684457877E+02 0.  0.
         23    2    1    2    0    0 -0.17698066173E+02  0.54547231299E+01  0.49123568951E+03  0.49993848577E+03  0.91011050773E+02 0.  0.
        -11    1    4    4    0    0 -0.36503771163E+02 -0.32191256367E+02  0.31566374691E+03  0.31939380615E+03  0.00000000000E+00 0.  1.
         11    1    4    4    0    0  0.18805704991E+02  0.37645979497E+02  0.17557194260E+03  0.18054467962E+03  0.00000000000E+00 0. -1.
        -15    1    3    3    0    0 -0.37490664779E+02 -0.36273405318E+01 -0.17251488149E+03  0.17658779575E+03  0.17770000000E+01 0.  1.
         15    1    3    3    0    0  0.55188730952E+02 -0.18273825981E+01 -0.31872080802E+03  0.32347371847E+03  0.17770000000E+01 0. -1.
</event>
<event>
 8    1  0.9532337E-006  0.5002923E+03  0.7546771E-02  0.9399156E-01
        -11   -1    0    0    0    0  0.00000000000E+00  0.00000000000E+00  0.50000000000E+03  0.50000000000E+03  0.00000000000E+00 0. -1.
         11   -1    0    0    0    0 -0.00000000000E+00 -0.00000000000E+00 -0.50000000000E+03  0.50000000000E+03  0.00000000000E+00 0. -1.
         23    2    1    2    0    0 -0.89713587139E+01 -0.42577370172E+02 -0.48956578275E+03  0.50029231659E+03  0.93404650183E+02 0.  0.
         23    2    1    2    0    0  0.89713587139E+01  0.42577370172E+02  0.48956578275E+03  0.49970768341E+03  0.90220815195E+02 0.  0.
        -11    1    4    4    0    0  0.29482087203E+02  0.36947929494E+02  0.46421883248E+03  0.46661918883E+03  0.00000000000E+00 0. -1.
         11    1    4    4    0    0 -0.20510728489E+02  0.56294406781E+01  0.25346950271E+02  0.33088494579E+02  0.00000000000E+00 0. -1.
        -15    1    3    3    0    0 -0.20702437713E+01 -0.71880915940E+02 -0.31209048832E+03  0.32027298140E+03  0.17770000000E+01 0.  1.
         15    1    3    3    0    0 -0.69011149426E+01  0.29303545768E+02 -0.17747529443E+03  0.18001933519E+03  0.17770000000E+01 0. -1.
</event>
<event>
 8    1  0.9532337E-006  0.5000787E+03  0.7546771E-02  0.9399634E-01
        -11   -1    0    0    0    0  0.00000000000E+00  0.00000000000E+00  0.50000000000E+03  0.50000000000E+03  0.00000000000E+00 0.  1.
         11   -1    0    0    0    0 -0.00000000000E+00 -0.00000000000E+00 -0.50000000000E+03  0.50000000000E+03  0.00000000000E+00 0. -1.
         23    2    1    2    0    0  0.48055188095E+02  0.31285896896E+03  0.37611169461E+03  0.50007871982E+03  0.91807862560E+02 0.  0.
         23    2    1    2    0    0 -0.48055188095E+02 -0.31285896896E+03 -0.37611169461E+03  0.49992128018E+03  0.90946379768E+02 0.  0.
        -11    1    4    4    0    0  0.23401081020E+01 -0.20347315714E+03 -0.19103115052E+03  0.27910518134E+03  0.00000000000E+00 0. -1.
         11    1    4    4    0    0 -0.50395296197E+02 -0.10938581182E+03 -0.18508054409E+03  0.22081609884E+03  0.00000000000E+00 0.  1.
        -15    1    3    3    0    0 -0.12949253168E+02  0.15745711891E+03  0.14131878742E+03  0.21197779332E+03  0.17770000000E+01 0.  1.
         15    1    3    3    0    0  0.61004441263E+02  0.15540185005E+03  0.23479290719E+03  0.28810092650E+03  0.17770000000E+01 0. -1.
</event>
<event>
 8    1  0.9532337E-006  0.5000123E+03  0.7546771E-02  0.9399782E-01
        -11   -1    0    0    0    0  0.00000000000E+00  0.00000000000E+00  0.50000000000E+03  0.50000000000E+03  0.00000000000E+00 0.  1.
         11   -1    0    0    0    0 -0.00000000000E+00 -0.00000000000E+00 -0.50000000000E+03  0.50000000000E+03  0.00000000000E+00 0.  1.
         23    2    1    2    0    0  0.77562703229E+01 -0.19230222810E+02 -0.49124529651E+03  0.50001230876E+03  0.90886777750E+02 0.  0.
         23    2    1    2    0    0 -0.77562703229E+01  0.19230222810E+02  0.49124529651E+03  0.49998769124E+03  0.90751247114E+02 0.  0.
        -11    1    4    4    0    0  0.85071348302E+01 -0.34376379366E+02  0.23801833974E+03  0.24063839439E+03  0.00000000000E+00 0.  1.
         11    1    4    4    0    0 -0.16263405153E+02  0.53606602176E+02  0.25322695677E+03  0.25934929686E+03  0.00000000000E+00 0.  1.
        -15    1    3    3    0    0  0.23408957125E+02 -0.49343183664E+02 -0.22178233296E+03  0.22841473242E+03  0.17770000000E+01 0. -1.
         15    1    3    3    0    0 -0.15652686802E+02  0.30112960854E+02 -0.26946296355E+03  0.27159757634E+03  0.17770000000E+01 0.  1.
</event>
<event>
 8    1  0.9532337E-006  0.5000694E+03  0.7546771E-02  0.9399655E-01
        -11   -1    0    0    0    0  0.00000000000E+00  0.00000000000E+00  0.50000000000E+03  0.50000000000E+03  0.00000000000E+00 0. -1.
         11   -1    0    0    0    0 -0.00000000000E+00 -0.00000000000E+00 -0.50000000000E+03  0.50000000000E+03  0.00000000000E+00 0.  1.
         23    2    1    2    0    0 -0.43651068732E+02  0.78025627012E+02 -0.48327091695E+03  0.50006936294E+03  0.92331870494E+02 0.  0.
         23    2    1    2    0    0  0.43651068732E+02 -0.78025627012E+02  0.48327091695E+03  0.49993063706E+03  0.91577554227E+02 0.  0.
        -11    1    4    4    0    0  0.60480984529E+01 -0.88682834421E+02  0.33264080127E+03  0.34431254303E+03  0.00000000000E+00 0. -1.
         11    1    4    4    0    0  0.37602970279E+02  0.10657207409E+02  0.15063011567E+03  0.15561809403E+03  0.00000000000E+00 0.  1.
        -15    1    3    3    0    0 -0.28702572202E+02  0.97913789387E+02 -0.41566844135E+03  0.42801210107E+03  0.17770000000E+01 0.  1.
         15    1    3    3    0    0 -0.14948496530E+02 -0.19888162375E+02 -0.67602475597E+02  0.72057261861E+02  0.17770000000E+01 0. -1.
</event>
<event>
 8    1  0.9532337E-006  0.5009948E+03  0.7546771E-02  0.9397587E-01
        -11   -1    0    0    0    0  0.00000000000E+00  0.00000000000E+00  0.50000000000E+03  0.50000000000E+03  0.00000000000E+00 0. -1.
         11   -1    0    0    0    0 -0.00000000000E+00 -0.00000000000E+00 -0.50000000000E+03  0.50000000000E+03  0.00000000000E+00 0.  1.
         23    2    1    2    0    0 -0.19889331552E+02  0.11307457156E+03  0.47723563956E+03  0.49900524398E+03  0.89838374938E+02 0.  0.
         23    2    1    2    0    0  0.19889331552E+02 -0.11307457156E+03 -0.47723563956E+03  0.50099475602E+03  0.10030177288E+03 0.  0.
        -11    1    4    4    0    0  0.33780359575E+02 -0.17518683062E+02 -0.49176955771E+02  0.62180301769E+02  0.00000000000E+00 0. -1.
         11    1    4    4    0    0 -0.13891028022E+02 -0.95555888497E+02 -0.42805868379E+03  0.43881445425E+03  0.00000000000E+00 0.  1.
        -15    1    3    3    0    0  0.23052662043E+02 -0.13532897840E+01  0.90237364590E+02  0.93162204341E+02  0.17770000000E+01 0.  1.
         15    1    3    3    0    0 -0.42941993595E+02  0.11442786134E+03  0.38699827497E+03  0.40584303964E+03  0.17770000000E+01 0. -1.
</event>
<event>
 8    1  0.9532337E-006  0.5000695E+03  0.7546771E-02  0.9399654E-01
        -11   -1    0    0    0    0  0.00000000000E+00  0.00000000000E+00  0.50000000000E+03  0.50000000000E+03  0.00000000000E+00 0.  1.
         11   -1    0    0    0    0 -0.00000000000E+00 -0.00000000000E+00 -0.50000000000E+03  0.50000000000E+03  0.00000000000E+00 0. -1.
         23    2    1    2    0    0  0.21173639449E+03 -0.15433839622E+03 -0.41597390234E+03  0.49993054820E+03  0.90794406737E+02 0.  0.
         23    2    1    2    0    0 -0.21173639449E+03  0.15433839622E+03  0.41597390234E+03  0.50006945180E+03  0.91556146097E+02 0.  0.
        -11    1    4    4    0    0 -0.17653055859E+03  0.11769756952E+03  0.38760091708E+03  0.44187127867E+03  0.00000000000E+00 0.  1.
         11    1    4    4    0    0 -0.35205835902E+02  0.36640826702E+02  0.28372985260E+02  0.58198173128E+02  0.00000000000E+00 0. -1.
        -15    1    3    3    0    0  0.77302211347E+02 -0.10038183452E+03 -0.24506220371E+03  0.27588183339E+03  0.17770000000E+01 0.  1.
         15    1    3    3    0    0  0.13443418315E+03 -0.53956561700E+02 -0.17091169864E+03  0.22404871481E+03  0.17770000000E+01 0. -1.
</event>
<event>
 8    1  0.9532337E-006  0.5002730E+03  0.7546771E-02  0.9399199E-01
        -11   -1    0    0    0    0  0.00000000000E+00  0.00000000000E+00  0.50000000000E+03  0.50000000000E+03  0.00000000000E+00 0.  1.
         11   -1    0    0    0    0 -0.00000000000E+00 -0.00000000000E+00 -0.50000000000E+03  0.50000000000E+03  0.00000000000E+00 0.  1.
         23    2    1    2    0    0  0.58236873635E+01 -0.24401926246E+02 -0.49015314244E+03  0.50027304025E+03  0.96920804850E+02 0.  0.
         23    2    1    2    0    0 -0.58236873635E+01  0.24401926246E+02  0.49015314244E+03  0.49972695975E+03  0.94061479440E+02 0.  0.
        -11    1    4    4    0    0  0.25733356760E+02  0.12799642403E+02  0.42882431808E+03  0.42978637981E+03  0.00000000000E+00 0.  1.
         11    1    4    4    0    0 -0.31557044123E+02  0.11602283843E+02  0.61328824367E+02  0.69940579941E+02  0.00000000000E+00 0.  1.
        -15    1    3    3    0    0  0.32720363619E+02  0.19273944605E+02 -0.10412599577E+03  0.11084894163E+03  0.17770000000E+01 0. -1.
         15    1    3    3    0    0 -0.26896676255E+02 -0.43675870851E+02 -0.38602714667E+03  0.38942409862E+03  0.17770000000E+01 0.  1.
</event>
<event>
 8    1  0.9532337E-006  0.5011223E+03  0.7546771E-02  0.9397302E-01
        -11   -1    0    0    0    0  0.00000000000E+00  0.00000000000E+00  0.50000000000E+03  0.50000000000E+03  0.00000000000E+00 0. -1.
         11   -1    0    0    0    0 -0.00000000000E+00 -0.00000000000E+00 -0.50000000000E+03  0.50000000000E+03  0.00000000000E+00 0.  1.
         23    2    1    2    0    0 -0.37744453214E+02 -0.88408812283E+02 -0.48210863927E+03  0.50112234984E+03  0.97232235462E+02 0.  0.
         23    2    1    2    0    0  0.37744453214E+02  0.88408812283E+02  0.48210863927E+03  0.49887765016E+03  0.84908232373E+02 0.  0.
        -11    1    4    4    0    0 -0.14736781586E+02  0.35238305426E+02  0.67199033263E+02  0.77295672404E+02  0.00000000000E+00 0.  1.
         11    1    4    4    0    0  0.52481234800E+02  0.53170506857E+02  0.41490960601E+03  0.42158197775E+03  0.00000000000E+00 0. -1.
        -15    1    3    3    0    0  0.30613936374E+02 -0.90741577438E+01 -0.11554252021E+03  0.11988655114E+03  0.17770000000E+01 0. -1.
         15    1    3    3    0    0 -0.68358389588E+02 -0.79334654539E+02 -0.36656611906E+03  0.38123579870E+03  0.17770000000E+01 0.  1.
</event>
<event>
 8    1  0.9532337E-006  0.5002567E+03  0.7546771E-02  0.9399236E-01
        -11   -1    0    0    0    0  0.00000000000E+00  0.00000000000E+00  0.50000000000E+03  0.50000000000E+03  0.00000000000E+00 0.  1.
         11   -1    0    0    0    0 -0.00000000000E+00 -0.00000000000E+00 -0.50000000000E+03  0.50000000000E+03  0.00000000000E+00 0. -1.
         23    2    1    2    0    0 -0.31182522172E+02 -0.57145448200E+02 -0.48748410034E+03  0.49974330760E+03  0.88682994242E+02 0.  0.
         23    2    1    2    0    0  0.31182522172E+02  0.57145448200E+02  0.48748410034E+03  0.50025669240E+03  0.91531733612E+02 0.  0.
        -11    1    4    4    0    0  0.30277711071E+02  0.22796142079E+02  0.44007972870E+03  0.44170869529E+03  0.00000000000E+00 0.  1.
         11    1    4    4    0    0  0.90481110071E+00  0.34349306121E+02  0.47404371647E+02  0.58547997108E+02  0.00000000000E+00 0. -1.
        -15    1    3    3    0    0  0.10314521557E+02 -0.62861553257E+02 -0.22187437097E+03  0.23084487963E+03  0.17770000000E+01 0. -1.
         15    1    3    3    0    0 -0.41497043729E+02  0.57161050572E+01 -0.26560972938E+03  0.26889842797E+03  0.17770000000E+01 0.  1.
</event>
<event>
 7    1  0.9532337E-006  0.5041736E+03  0.7546771E-02  0.9390519E-01
        -11   -1    0    0    0    0  0.00000000000E+00  0.00000000000E+00  0.50000000000E+03  0.50000000000E+03  0.00000000000E+00 0.  1.
         11   -1    0    0    0    0 -0.00000000000E+00 -0.00000000000E+00 -0.50000000000E+03  0.50000000000E+03  0.00000000000E+00 0. -1.
         23    2    1    2    0    0  0.63101922905E+02 -0.12778395337E+03 -0.46584256151E+03  0.49582635387E+03  0.92324913564E+02 0.  0.
        -11    1    1    2    0    0 -0.49796174068E+02  0.88239354993E+02  0.44709539780E+03  0.45843226049E+03  0.00000000000E+00 0.  1.
         11    1    1    2    0    0 -0.13305748838E+02  0.39544598376E+02  0.18747163716E+02  0.45741385640E+02  0.00000000000E+00 0. -1.
        -15    1    3    3    0    0 -0.18374914275E+02 -0.58198169683E+02 -0.13770713538E+03  0.15063557778E+03  0.17770000000E+01 0.  1.
         15    1    3    3    0    0  0.81476837180E+02 -0.69585783687E+02 -0.32813542614E+03  0.34519077610E+03  0.17770000000E+01 0. -1.
</event>
<event>
 7    1  0.9532337E-006  0.5042056E+03  0.7546771E-02  0.9390448E-01
        -11   -1    0    0    0    0  0.00000000000E+00  0.00000000000E+00  0.50000000000E+03  0.50000000000E+03  0.00000000000E+00 0.  1.
         11   -1    0    0    0    0 -0.00000000000E+00 -0.00000000000E+00 -0.50000000000E+03  0.50000000000E+03  0.00000000000E+00 0. -1.
         23    2    1    2    0    0 -0.33785619625E+03 -0.16652739442E+03 -0.30857336923E+03  0.49579443059E+03  0.93361719993E+02 0.  0.
        -11    1    3    3    0    0 -0.19487209025E+02  0.12071840296E+02 -0.20940027873E+02  0.31047792370E+02  0.00000000000E+00 0.  1.
         11    1    3    3    0    0 -0.31836898723E+03 -0.17859923472E+03 -0.28763334136E+03  0.46474663822E+03  0.00000000000E+00 0. -1.
        -15    1    1    2    0    0  0.33428135322E+03  0.13293272438E+03  0.25542450657E+03  0.44120286559E+03  0.17770000000E+01 0.  1.
         15    1    1    2    0    0  0.35748430357E+01  0.33594670038E+02  0.53148862661E+02  0.63002703822E+02  0.17770000000E+01 0. -1.
</event>
<event>
 7    1  0.9532337E-006  0.4232248E+03  0.7546771E-02  0.9590163E-01
        -11   -1    0    0    0    0  0.00000000000E+00  0.00000000000E+00  0.50000000000E+03  0.50000000000E+03  0.00000000000E+00 0.  1.
         11   -1    0    0    0    0 -0.00000000000E+00 -0.00000000000E+00 -0.50000000000E+03  0.50000000000E+03  0.00000000000E+00 0.  1.
         23    2    1    2    0    0  0.28432434451E+02 -0.44071165988E+02 -0.44339013971E+03  0.45559886691E+03  0.90690906579E+02 0.  0.
        -11    1    1    2    0    0 -0.11848985831E+03  0.12498504266E+03  0.35477276947E+03  0.39436635932E+03  0.00000000000E+00 0.  1.
         11    1    1    2    0    0  0.90057423856E+02 -0.80913876669E+02  0.88617370246E+02  0.15003477376E+03  0.00000000000E+00 0.  1.
        -15    1    3    3    0    0 -0.21447930618E+02 -0.38488692164E+02 -0.11104439199E+03  0.11947973834E+03  0.17770000000E+01 0. -1.
         15    1    3    3    0    0  0.49880365069E+02 -0.55824738242E+01 -0.33234574772E+03  0.33611912857E+03  0.17770000000E+01 0.  1.
</event>
<event>
 7    1  0.9532337E-006  0.1000000E+04  0.7546771E-02  0.8684367E-01
        -11   -1    0    0    0    0  0.00000000000E+00  0.00000000000E+00  0.50000000000E+03  0.50000000000E+03  0.00000000000E+00 0.  1.
         11   -1    0    0    0    0 -0.00000000000E+00 -0.00000000000E+00 -0.50000000000E+03  0.50000000000E+03  0.00000000000E+00 0. -1.
         23    2    1    2    0    0 -0.95737814253E+02 -0.41542499425E+03  0.10359665810E+03  0.44853679226E+03  0.93323799321E+02 0.  0.
        -11    1    3    3    0    0 -0.85684893529E+02 -0.41467439872E+03  0.92265036432E+02  0.43337004382E+03  0.00000000000E+00 0.  1.
         11    1    3    3    0    0 -0.10052920724E+02 -0.75059552811E+00  0.11331621665E+02  0.15166748442E+02  0.00000000000E+00 0. -1.
        -15    1    1    2    0    0  0.40551900993E+02  0.39615989020E+03 -0.19464121710E+03  0.44325554300E+03  0.17770000000E+01 0. -1.
         15    1    1    2    0    0  0.55185913260E+02  0.19265104053E+02  0.91044559000E+02  0.10820766474E+03  0.17770000000E+01 0.  1.
</event>
<event>
 8    1  0.9532337E-006  0.5000667E+03  0.7546771E-02  0.9399661E-01
        -11   -1    0    0    0    0  0.00000000000E+00  0.00000000000E+00  0.50000000000E+03  0.50000000000E+03  0.00000000000E+00 0.  1.
         11   -1    0    0    0    0 -0.00000000000E+00 -0.00000000000E+00 -0.50000000000E+03  0.50000000000E+03  0.00000000000E+00 0. -1.
         23    2    1    2    0    0  0.37910529500E+02  0.14391738980E+02  0.48992641420E+03  0.50006666197E+03  0.91621202194E+02 0.  0.
         23    2    1    2    0    0 -0.37910529500E+02 -0.14391738980E+02 -0.48992641420E+03  0.49993333803E+03  0.90890707709E+02 0.  0.
        -11    1    4    4    0    0 -0.10100189439E+02  0.38469576580E+02 -0.19067712575E+03  0.19478112956E+03  0.00000000000E+00 0.  1.
         11    1    4    4    0    0 -0.27810340060E+02 -0.52861315560E+02 -0.29924928845E+03  0.30515220847E+03  0.00000000000E+00 0. -1.
        -15    1    3    3    0    0  0.73333512979E+01  0.50509800510E+02  0.30060033885E+03  0.30490775561E+03  0.17770000000E+01 0.  1.
         15    1    3    3    0    0  0.30577178202E+02 -0.36118061530E+02  0.18932607535E+03  0.19515890636E+03  0.17770000000E+01 0. -1.
</event>
<event>
 8    1  0.9532337E-006  0.5000783E+03  0.7546771E-02  0.9399635E-01
        -11   -1    0    0    0    0  0.00000000000E+00  0.00000000000E+00  0.50000000000E+03  0.50000000000E+03  0.00000000000E+00 0. -1.
         11   -1    0    0    0    0 -0.00000000000E+00 -0.00000000000E+00 -0.50000000000E+03  0.50000000000E+03  0.00000000000E+00 0.  1.
         23    2    1    2    0    0  0.98376229693E+01 -0.59569660023E+01 -0.49151826405E+03  0.49992172272E+03  0.90549769100E+02 0.  0.
         23    2    1    2    0    0 -0.98376229693E+01  0.59569660023E+01  0.49151826405E+03  0.50007827728E+03  0.91410148465E+02 0.  0.
        -11    1    4    4    0    0  0.32764606663E+02 -0.15602032383E+02  0.11619362441E+03  0.12172880192E+03  0.00000000000E+00 0.  1.
         11    1    4    4    0    0 -0.42602229632E+02  0.21558998385E+02  0.37532463964E+03  0.37834947536E+03  0.00000000000E+00 0. -1.
        -15    1    3    3    0    0  0.29018268481E+02  0.34589908060E+02 -0.20610584612E+03  0.21100070896E+03  0.17770000000E+01 0.  1.
         15    1    3    3    0    0 -0.19180645512E+02 -0.40546874063E+02 -0.28541241793E+03  0.28892101376E+03  0.17770000000E+01 0. -1.
</event>
<event>
 8    1  0.9532337E-006  0.5000345E+03  0.7546771E-02  0.9399732E-01
        -11   -1    0    0    0    0  0.00000000000E+00  0.00000000000E+00  0.50000000000E+03  0.50000000000E+03  0.00000000000E+00 0. -1.
         11   -1    0    0    0    0 -0.00000000000E+00 -0.00000000000E+00 -0.50000000000E+03  0.50000000000E+03  0.00000000000E+00 0.  1.
         23    2    1    2    0    0 -0.15910384104E+03  0.19364720775E+03  0.42296138173E+03  0.49996546228E+03  0.90861761660E+02 0.  0.
         23    2    1    2    0    0  0.15910384104E+03 -0.19364720775E+03 -0.42296138173E+03  0.50003453772E+03  0.91241082693E+02 0.  0.
        -11    1    4    4    0    0 -0.10540252655E+02 -0.22509029397E+02 -0.28726916753E+02  0.37986696047E+02  0.00000000000E+00 0. -1.
         11    1    4    4    0    0  0.16964409370E+03 -0.17113817835E+03 -0.39423446498E+03  0.46204784167E+03  0.00000000000E+00 0.  1.
        -15    1    3    3    0    0 -0.92973758252E+02  0.43871509486E+02  0.15933955415E+03  0.18963406950E+03  0.17770000000E+01 0.  1.
         15    1    3    3    0    0 -0.66130082792E+02  0.14977569826E+03  0.26362182758E+03  0.31033139278E+03  0.17770000000E+01 0. -1.
</event>
<event>
 8    1  0.9532337E-006  0.5000268E+03  0.7546771E-02  0.9399750E-01
        -11   -1    0    0    0    0  0.00000000000E+00  0.00000000000E+00  0.50000000000E+03  0.50000000000E+03  0.00000000000E+00 0.  1.
         11   -1    0    0    0    0 -0.00000000000E+00 -0.00000000000E+00 -0.50000000000E+03  0.50000000000E+03  0.00000000000E+00 0. -1.
         23    2    1    2    0    0 -0.90081402320E+01  0.62710483135E+01 -0.49134959154E+03  0.50002681510E+03  0.92097351106E+02 0.  0.
         23    2    1    2    0    0  0.90081402320E+01 -0.62710483135E+01  0.49134959154E+03  0.49997318490E+03  0.91805728980E+02 0.  0.
        -11    1    4    4    0    0  0.22969888836E+02  0.35611634632E+02  0.15317064881E+03  0.15892467389E+03  0.00000000000E+00 0.  1.
         11    1    4    4    0    0 -0.13961748604E+02 -0.41882682945E+02  0.33817894273E+03  0.34104851100E+03  0.00000000000E+00 0. -1.
        -15    1    3    3    0    0 -0.16089860501E+02  0.42251803009E+02 -0.38217899001E+03  0.38484806951E+03  0.17770000000E+01 0. -1.
         15    1    3    3    0    0  0.70817202692E+01 -0.35980754695E+02 -0.10917060152E+03  0.11517874559E+03  0.17770000000E+01 0.  1.
</event>
<event>
 8    1  0.9532337E-006  0.5000290E+03  0.7546771E-02  0.9399745E-01
        -11   -1    0    0    0    0  0.00000000000E+00  0.00000000000E+00  0.50000000000E+03  0.50000000000E+03  0.00000000000E+00 0.  1.
         11   -1    0    0    0    0 -0.00000000000E+00 -0.00000000000E+00 -0.50000000000E+03  0.50000000000E+03  0.00000000000E+00 0. -1.
         23    2    1    2    0    0 -0.34412260695E+02  0.20271714745E+02 -0.48999818487E+03  0.50002902600E+03  0.91299833357E+02 0.  0.
         23    2    1    2    0    0  0.34412260695E+02 -0.20271714745E+02  0.48999818487E+03  0.49997097400E+03  0.90981358319E+02 0.  0.
        -11    1    4    4    0    0  0.57282123828E+02 -0.39188644064E+02  0.35979084114E+03  0.36642385417E+03  0.00000000000E+00 0.  1.
         11    1    4    4    0    0 -0.22869863133E+02  0.18916929319E+02  0.13020734372E+03  0.13354711982E+03  0.00000000000E+00 0. -1.
        -15    1    3    3    0    0  0.23598737182E+02 -0.13435489047E+02 -0.78260509885E+02  0.82856972543E+02  0.17770000000E+01 0.  1.
         15    1    3    3    0    0 -0.58010997877E+02  0.33707203793E+02 -0.41173767498E+03  0.41717205346E+03  0.17770000000E+01 0. -1.
</event>
<event>
 8    1  0.9532337E-006  0.5013102E+03  0.7546771E-02  0.9396883E-01
        -11   -1    0    0    0    0  0.00000000000E+00  0.00000000000E+00  0.50000000000E+03  0.50000000000E+03  0.00000000000E+00 0.  1.
         11   -1    0    0    0    0 -0.00000000000E+00 -0.00000000000E+00 -0.50000000000E+03  0.50000000000E+03  0.00000000000E+00 0. -1.
         23    2    1    2    0    0  0.29029505793E+02  0.44086061516E+03  0.21326066718E+03  0.49868982188E+03  0.89502134430E+02 0.  0.
         23    2    1    2    0    0 -0.29029505793E+02 -0.44086061516E+03 -0.21326066718E+03  0.50131017812E+03  0.10310668415E+03 0.  0.
        -11    1    4    4    0    0  0.22534867975E+02 -0.17107526150E+03 -0.41890010212E+02  0.17756502563E+03  0.00000000000E+00 0.  1.
         11    1    4    4    0    0 -0.51564373768E+02 -0.26978535367E+03 -0.17137065697E+03  0.32374515250E+03  0.00000000000E+00 0. -1.
        -15    1    3    3    0    0 -0.27618328654E+02  0.10145072982E+03  0.67662467952E+02  0.12504555153E+03  0.17770000000E+01 0. -1.
         15    1    3    3    0    0  0.56647834447E+02  0.33940988534E+03  0.14559819923E+03  0.37364427034E+03  0.17770000000E+01 0.  1.
</event>
<event>
 8    1  0.9532337E-006  0.5006446E+03  0.7546771E-02  0.9398369E-01
        -11   -1    0    0    0    0  0.00000000000E+00  0.00000000000E+00  0.50000000000E+03  0.50000000000E+03  0.00000000000E+00 0.  1.
         11   -1    0    0    0    0 -0.00000000000E+00 -0.00000000000E+00 -0.50000000000E+03  0.50000000000E+03  0.00000000000E+00 0. -1.
         23    2    1    2    0    0  0.56019478861E+02 -0.45155213999E+03  0.18489987994E+03  0.50064456355E+03  0.97054089399E+02 0.  0.
         23    2    1    2    0    0 -0.56019478861E+02  0.45155213999E+03 -0.18489987994E+03  0.49935543645E+03  0.90168559775E+02 0.  0.
        -11    1    4    4    0    0 -0.80130973182E+02  0.32649996196E+03 -0.14228704735E+03  0.36505999762E+03  0.00000000000E+00 0. -1.
         11    1    4    4    0    0  0.24111494321E+02  0.12505217803E+03 -0.42612832591E+02  0.13429543883E+03  0.00000000000E+00 0.  1.
        -15    1    3    3    0    0  0.59281061876E+02 -0.25866716868E+03  0.64054776956E+02  0.27300022093E+03  0.17770000000E+01 0.  1.
         15    1    3    3    0    0 -0.32615830153E+01 -0.19288497131E+03  0.12084510298E+03  0.22764434262E+03  0.17770000000E+01 0. -1.
</event>
<event>
 8    1  0.9532337E-006  0.5004374E+03  0.7546771E-02  0.9398831E-01
        -11   -1    0    0    0    0  0.00000000000E+00  0.00000000000E+00  0.50000000000E+03  0.50000000000E+03  0.00000000000E+00 0.  1.
         11   -1    0    0    0    0 -0.00000000000E+00 -0.00000000000E+00 -0.50000000000E+03  0.50000000000E+03  0.00000000000E+00 0. -1.
         23    2    1    2    0    0 -0.38862864591E+03  0.52438467913E+02  0.29530617926E+03  0.49956256272E+03  0.92601280910E+02 0.  0.
         23    2    1    2    0    0  0.38862864591E+03 -0.52438467913E+02 -0.29530617926E+03  0.50043743728E+03  0.97210450992E+02 0.  0.
        -11    1    4    4    0    0  0.24220547210E+03 -0.79781373471E+02 -0.19051053106E+03  0.31831245767E+03  0.00000000000E+00 0. -1.
         11    1    4    4    0    0  0.14642317381E+03  0.27342905558E+02 -0.10479564820E+03  0.18212497960E+03  0.00000000000E+00 0.  1.
        -15    1    3    3    0    0 -0.19657712475E+03  0.72153602396E+02  0.14173563771E+03  0.25286529426E+03  0.17770000000E+01 0.  1.
         15    1    3    3    0    0 -0.19205152116E+03 -0.19715134483E+02  0.15357054155E+03  0.24669726846E+03  0.17770000000E+01 0. -1.
</event>
<event>
 8    1  0.9532337E-006  0.5001239E+03  0.7546771E-02  0.9399533E-01
        -11   -1    0    0    0    0  0.00000000000E+00  0.00000000000E+00  0.50000000000E+03  0.50000000000E+03  0.00000000000E+00 0.  1.
         11   -1    0    0    0    0 -0.00000000000E+00 -0.00000000000E+00 -0.50000000000E+03  0.50000000000E+03  0.00000000000E+00 0. -1.
         23    2    1    2    0    0  0.29861358671E+02  0.19281746208E+03  0.45112606021E+03  0.50012385992E+03  0.92406053071E+02 0.  0.
         23    2    1    2    0    0 -0.29861358671E+02 -0.19281746208E+03 -0.45112606021E+03  0.49987614008E+03  0.91055800453E+02 0.  0.
        -11    1    4    4    0    0  0.23727718793E+02 -0.13215238259E+03 -0.28901791877E+03  0.31868262305E+03  0.00000000000E+00 0. -1.
         11    1    4    4    0    0 -0.53589077464E+02 -0.60665079488E+02 -0.16210814144E+03  0.18119351703E+03  0.00000000000E+00 0.  1.
        -15    1    3    3    0    0  0.34153390118E+02  0.17361782978E+03  0.30457941781E+03  0.35225187630E+03  0.17770000000E+01 0.  1.
         15    1    3    3    0    0 -0.42920314474E+01  0.19199632298E+02  0.14654664240E+03  0.14787198363E+03  0.17770000000E+01 0. -1.
</event>
<event>
 7    1  0.9532337E-006  0.5094506E+03  0.7546771E-02  0.9378908E-01
        -11   -1    0    0    0    0  0.00000000000E+00  0.00000000000E+00  0.50000000000E+03  0.50000000000E+03  0.00000000000E+00 0. -1.
         11   -1    0    0    0    0 -0.00000000000E+00 -0.00000000000E+00 -0.50000000000E+03  0.50000000000E+03  0.00000000000E+00 0. -1.
         23    2    1    2    0    0  0.15548138630E+02  0.22843911907E+02  0.48069334254E+03  0.49054942597E+03  0.93856597143E+02 0.  0.
        -11    1    3    3    0    0  0.29938822463E+02  0.46791639955E+02  0.42090982352E+03  0.42455961913E+03  0.00000000000E+00 0. -1.
         11    1    3    3    0    0 -0.14390683833E+02 -0.23947728048E+02  0.59783519018E+02  0.65989806834E+02  0.00000000000E+00 0. -1.
        -15    1    1    2    0    0 -0.18479525169E+02 -0.65626676246E+00  0.80115017218E+01  0.20230309572E+02  0.17770000000E+01 0.  1.
         15    1    1    2    0    0  0.29313865393E+01 -0.22187645145E+02 -0.48870484426E+03  0.48922026446E+03  0.17770000000E+01 0. -1.
</event>
<event>
 8    1  0.9532337E-006  0.5000850E+03  0.7546771E-02  0.9399620E-01
        -11   -1    0    0    0    0  0.00000000000E+00  0.00000000000E+00  0.50000000000E+03  0.50000000000E+03  0.00000000000E+00 0. -1.
         11   -1    0    0    0    0 -0.00000000000E+00 -0.00000000000E+00 -0.50000000000E+03  0.50000000000E+03  0.00000000000E+00 0.  1.
         23    2    1    2    0    0  0.42513222212E+02  0.26157192831E+02 -0.48924393305E+03  0.50008496904E+03  0.90740164407E+02 0.  0.
         23    2    1    2    0    0 -0.42513222212E+02 -0.26157192831E+02  0.48924393305E+03  0.49991503096E+03  0.89798882834E+02 0.  0.
        -11    1    4    4    0    0 -0.57419608802E+02 -0.14279539468E+02  0.16815874623E+03  0.17826463658E+03  0.00000000000E+00 0.  1.
         11    1    4    4    0    0  0.14906386590E+02 -0.11877653363E+02  0.32108518682E+03  0.32165039438E+03  0.00000000000E+00 0. -1.
        -15    1    3    3    0    0  0.17544559137E+02 -0.15937171806E+02 -0.30180301114E+02  0.38416315607E+02  0.17770000000E+01 0. -1.
         15    1    3    3    0    0  0.24968663075E+02  0.42094364637E+02 -0.45906363193E+03  0.46166865343E+03  0.17770000000E+01 0.  1.
</event>
<event>
 8    1  0.9532337E-006  0.5003715E+03  0.7546771E-02  0.9398979E-01
        -11   -1    0    0    0    0  0.00000000000E+00  0.00000000000E+00  0.50000000000E+03  0.50000000000E+03  0.00000000000E+00 0. -1.
         11   -1    0    0    0    0 -0.00000000000E+00 -0.00000000000E+00 -0.50000000000E+03  0.50000000000E+03  0.00000000000E+00 0.  1.
         23    2    1    2    0    0 -0.25413278174E+01  0.10044570418E+02 -0.49175778866E+03  0.49962854908E+03  0.87724640798E+02 0.  0.
         23    2    1    2    0    0  0.25413278174E+01 -0.10044570418E+02  0.49175778866E+03  0.50037145092E+03  0.91861387152E+02 0.  0.
        -11    1    4    4    0    0  0.10991110910E+02 -0.72240742761E+01  0.58718035425E+01  0.14403813558E+02  0.00000000000E+00 0.  1.
         11    1    4    4    0    0 -0.84497830923E+01 -0.28204961423E+01  0.48588598512E+03  0.48596763737E+03  0.00000000000E+00 0. -1.
        -15    1    3    3    0    0 -0.21098325184E+02  0.15292778676E+02 -0.46908033887E+03  0.46980690762E+03  0.17770000000E+01 0.  1.
         15    1    3    3    0    0  0.18556997366E+02 -0.52482082580E+01 -0.22677449792E+02  0.29821641458E+02  0.17770000000E+01 0. -1.
</event>
<event>
 7    1  0.9532337E-006  0.4685390E+03  0.7546771E-02  0.9473096E-01
        -11   -1    0    0    0    0  0.00000000000E+00  0.00000000000E+00  0.50000000000E+03  0.50000000000E+03  0.00000000000E+00 0. -1.
         11   -1    0    0    0    0 -0.00000000000E+00 -0.00000000000E+00 -0.50000000000E+03  0.50000000000E+03  0.00000000000E+00 0. -1.
         23    2    1    2    0    0  0.15798853619E+03  0.21169110393E+02 -0.44773518839E+03  0.48364016430E+03  0.89624219969E+02 0.  0.
        -11    1    1    2    0    0 -0.14558211356E+03 -0.80761120528E+02  0.41521466324E+03  0.44734743427E+03  0.00000000000E+00 0. -1.
         11    1    1    2    0    0 -0.12406422627E+02  0.59592010135E+02  0.32520525146E+02  0.69012401423E+02  0.00000000000E+00 0. -1.
        -15    1    3    3    0    0  0.19372545041E+02  0.14860902241E+02 -0.18402520872E+03  0.18564637646E+03  0.17770000000E+01 0.  1.
         15    1    3    3    0    0  0.13861599115E+03  0.63082081519E+01 -0.26370997967E+03  0.29799378785E+03  0.17770000000E+01 0. -1.
</event>
<event>
 8    1  0.9532337E-006  0.5001130E+03  0.7546771E-02  0.9399557E-01
        -11   -1    0    0    0    0  0.00000000000E+00  0.00000000000E+00  0.50000000000E+03  0.50000000000E+03  0.00000000000E+00 0.  1.
         11   -1    0    0    0    0 -0.00000000000E+00 -0.00000000000E+00 -0.50000000000E+03  0.50000000000E+03  0.00000000000E+00 0. -1.
         23    2    1    2    0    0 -0.67717831802E+01 -0.13123299411E+02 -0.49166955127E+03  0.49988697848E+03  0.89050354188E+02 0.  0.
         23    2    1    2    0    0  0.67717831802E+01  0.13123299411E+02  0.49166955127E+03  0.50011302152E+03  0.90310622922E+02 0.  0.
        -11    1    4    4    0    0  0.19548455951E+02  0.68075432527E+01  0.48297396731E+03  0.48341735372E+03  0.00000000000E+00 0.  1.
         11    1    4    4    0    0 -0.12776672770E+02  0.63157561585E+01  0.86955839568E+01  0.16695667800E+02  0.00000000000E+00 0. -1.
        -15    1    3    3    0    0  0.43972445490E+01  0.31455727040E+02 -0.87389962564E+02  0.92999794673E+02  0.17770000000E+01 0.  1.
         15    1    3    3    0    0 -0.11169027729E+02 -0.44579026452E+02 -0.40427958870E+03  0.40688718381E+03  0.17770000000E+01 0. -1.
</event>
<event>
 8    1  0.9532337E-006  0.5000511E+03  0.7546771E-02  0.9399695E-01
        -11   -1    0    0    0    0  0.00000000000E+00  0.00000000000E+00  0.50000000000E+03  0.50000000000E+03  0.00000000000E+00 0.  1.
         11   -1    0    0    0    0 -0.00000000000E+00 -0.00000000000E+00 -0.50000000000E+03  0.50000000000E+03  0.00000000000E+00 0. -1.
         23    2    1    2    0    0  0.33544579393E+02  0.12960852842E+03 -0.47304938659E+03  0.49994885799E+03  0.90826917879E+02 0.  0.
         23    2    1    2    0    0 -0.33544579393E+02 -0.12960852842E+03  0.47304938659E+03  0.50005114201E+03  0.91388254306E+02 0.  0.
        -11    1    4    4    0    0  0.17433666062E+02 -0.65387340068E+02  0.31287358926E+03  0.32010829388E+03  0.00000000000E+00 0.  1.
         11    1    4    4    0    0 -0.50978245454E+02 -0.64221188349E+02  0.16017579733E+03  0.17994284813E+03  0.00000000000E+00 0. -1.
        -15    1    3    3    0    0  0.68512824329E+01  0.63671096090E+01  0.84823200662E+00  0.95581055804E+01  0.17770000000E+01 0.  1.
         15    1    3    3    0    0  0.26693296960E+02  0.12324141881E+03 -0.47389761860E+03  0.49039075241E+03  0.17770000000E+01 0. -1.
</event>
<event>
 8    1  0.9532337E-006  0.5001970E+03  0.7546771E-02  0.9399369E-01
        -11   -1    0    0    0    0  0.00000000000E+00  0.00000000000E+00  0.50000000000E+03  0.50000000000E+03  0.00000000000E+00 0. -1.
         11   -1    0    0    0    0 -0.00000000000E+00 -0.00000000000E+00 -0.50000000000E+03  0.50000000000E+03  0.00000000000E+00 0.  1.
         23    2    1    2    0    0 -0.19595002861E+03 -0.88089164301E+02  0.44230921063E+03  0.50019698413E+03  0.91670445285E+02 0.  0.
         23    2    1    2    0    0  0.19595002861E+03  0.88089164301E+02 -0.44230921063E+03  0.49980301587E+03  0.89495822743E+02 0.  0.
        -11    1    4    4    0    0  0.18151351324E+03  0.79916515352E+02 -0.44053394042E+03  0.48311898905E+03  0.00000000000E+00 0.  1.
         11    1    4    4    0    0  0.14436515369E+02  0.81726489488E+01 -0.17752702095E+01  0.16684026826E+02  0.00000000000E+00 0. -1.
        -15    1    3    3    0    0 -0.19358384652E+03 -0.71582202787E+02  0.34959662582E+03  0.40597989593E+03  0.17770000000E+01 0. -1.
         15    1    3    3    0    0 -0.23661820959E+01 -0.16506961514E+02  0.92712584812E+02  0.94217088193E+02  0.17770000000E+01 0.  1.
</event>
<event>
 8    1  0.9532337E-006  0.5000775E+03  0.7546771E-02  0.9399636E-01
        -11   -1    0    0    0    0  0.00000000000E+00  0.00000000000E+00  0.50000000000E+03  0.50000000000E+03  0.00000000000E+00 0.  1.
         11   -1    0    0    0    0 -0.00000000000E+00 -0.00000000000E+00 -0.50000000000E+03  0.50000000000E+03  0.00000000000E+00 0. -1.
         23    2    1    2    0    0 -0.39302159626E+01 -0.19600155028E+02 -0.49103459073E+03  0.49992253737E+03  0.91694936604E+02 0.  0.
         23    2    1    2    0    0  0.39302159626E+01  0.19600155028E+02  0.49103459073E+03  0.50007746263E+03  0.92535866903E+02 0.  0.
        -11    1    4    4    0    0 -0.33184543969E+02 -0.55918769212E+00  0.76404276941E+02  0.83301501692E+02  0.00000000000E+00 0. -1.
         11    1    4    4    0    0  0.37114759932E+02  0.20159342720E+02  0.41463031379E+03  0.41677596094E+03  0.00000000000E+00 0.  1.
        -15    1    3    3    0    0  0.21126757171E+02 -0.27937119217E+02 -0.72349150841E+02  0.80401367247E+02  0.17770000000E+01 0.  1.
         15    1    3    3    0    0 -0.25056973133E+02  0.83369641894E+01 -0.41868543989E+03  0.41952117012E+03  0.17770000000E+01 0. -1.
</event>
<event>
 8    1  0.9532337E-006  0.5000760E+03  0.7546771E-02  0.9399640E-01
        -11   -1    0    0    0    0  0.00000000000E+00  0.00000000000E+00  0.50000000000E+03  0.50000000000E+03  0.00000000000E+00 0.  1.
         11   -1    0    0    0    0 -0.00000000000E+00 -0.00000000000E+00 -0.50000000000E+03  0.50000000000E+03  0.00000000000E+00 0. -1.
         23    2    1    2    0    0 -0.23485335787E+02 -0.57837468146E+01  0.49099082253E+03  0.49992402083E+03  0.90923187787E+02 0.  0.
         23    2    1    2    0    0  0.23485335787E+02  0.57837468146E+01 -0.49099082253E+03  0.50007597917E+03  0.91755023881E+02 0.  0.
        -11    1    4    4    0    0  0.30241011557E+02  0.11757898852E+02 -0.48992122790E+03  0.49099447707E+03  0.00000000000E+00 0. -1.
         11    1    4    4    0    0 -0.67556757695E+01 -0.59741520371E+01 -0.10695946284E+01  0.90815020968E+01  0.00000000000E+00 0.  1.
        -15    1    3    3    0    0 -0.34680292827E+02  0.17779214727E+02  0.44736148754E+03  0.44905932954E+03  0.17770000000E+01 0.  1.
         15    1    3    3    0    0  0.11194957039E+02 -0.23562961542E+02  0.43629334987E+02  0.50864691291E+02  0.17770000000E+01 0. -1.
</event>
<event>
 8    1  0.9532337E-006  0.5002028E+03  0.7546771E-02  0.9399356E-01
        -11   -1    0    0    0    0  0.00000000000E+00  0.00000000000E+00  0.50000000000E+03  0.50000000000E+03  0.00000000000E+00 0.  1.
         11   -1    0    0    0    0 -0.00000000000E+00 -0.00000000000E+00 -0.50000000000E+03  0.50000000000E+03  0.00000000000E+00 0. -1.
         23    2    1    2    0    0  0.52383025641E+02  0.17731691434E+02 -0.48889550657E+03  0.50020280195E+03  0.90142290201E+02 0.  0.
         23    2    1    2    0    0 -0.52383025641E+02 -0.17731691434E+02  0.48889550657E+03  0.49979719805E+03  0.87863693168E+02 0.  0.
        -11    1    4    4    0    0 -0.48107831733E+02  0.29471400788E+02  0.26823806186E+03  0.27410688567E+03  0.00000000000E+00 0.  1.
         11    1    4    4    0    0 -0.42751939072E+01 -0.47203092221E+02  0.22065744471E+03  0.22569031238E+03  0.00000000000E+00 0. -1.
        -15    1    3    3    0    0  0.70760111500E+02  0.19814313769E+02 -0.46009375234E+03  0.46592812652E+03  0.17770000000E+01 0. -1.
         15    1    3    3    0    0 -0.18377085860E+02 -0.20826223358E+01 -0.28801754225E+02  0.34274675432E+02  0.17770000000E+01 0.  1.
</event>
<event>
 8    1  0.9532337E-006  0.5016061E+03  0.7546771E-02  0.9396223E-01
        -11   -1    0    0    0    0  0.00000000000E+00  0.00000000000E+00  0.50000000000E+03  0.50000000000E+03  0.00000000000E+00 0.  1.
         11   -1    0    0    0    0 -0.00000000000E+00 -0.00000000000E+00 -0.50000000000E+03  0.50000000000E+03  0.00000000000E+00 0. -1.
         23    2    1    2    0    0 -0.29505772002E+03  0.12277227173E+03 -0.37584715607E+03  0.49839388427E+03  0.70733940262E+02 0.  0.
         23    2    1    2    0    0  0.29505772002E+03 -0.12277227173E+03  0.37584715607E+03  0.50160611573E+03  0.90639515484E+02 0.  0.
        -11    1    4    4    0    0  0.51992047562E+02  0.40701776542E+00  0.10621624712E+03  0.11825916381E+03  0.00000000000E+00 0. -1.
         11    1    4    4    0    0  0.24306567246E+03 -0.12317928949E+03  0.26963090895E+03  0.38334695192E+03  0.00000000000E+00 0.  1.
        -15    1    3    3    0    0 -0.24866617824E+03  0.80487318571E+02 -0.27344084625E+03  0.37826727426E+03  0.17770000000E+01 0. -1.
         15    1    3    3    0    0 -0.46391541777E+02  0.42284953155E+02 -0.10240630982E+03  0.12012661000E+03  0.17770000000E+01 0.  1.
</event>
<event>
 8    1  0.9532337E-006  0.5005236E+03  0.7546771E-02  0.9398639E-01
        -11   -1    0    0    0    0  0.00000000000E+00  0.00000000000E+00  0.50000000000E+03  0.50000000000E+03  0.00000000000E+00 0.  1.
         11   -1    0    0    0    0 -0.00000000000E+00 -0.00000000000E+00 -0.50000000000E+03  0.50000000000E+03  0.00000000000E+00 0. -1.
         23    2    1    2    0    0 -0.13569980853E+02  0.15828395637E+02 -0.49069748274E+03  0.50052356291E+03  0.96463127520E+02 0.  0.
         23    2    1    2    0    0  0.13569980853E+02 -0.15828395637E+02  0.49069748274E+03  0.49947643709E+03  0.90873588895E+02 0.  0.
        -11    1    4    4    0    0  0.43957962684E+02 -0.27674741382E+02  0.39439139853E+03  0.39779739696E+03  0.00000000000E+00 0.  1.
         11    1    4    4    0    0 -0.30387981830E+02  0.11846345745E+02  0.96306084209E+02  0.10167904014E+03  0.00000000000E+00 0. -1.
        -15    1    3    3    0    0  0.31365561309E+02 -0.22043865286E+02 -0.15258553293E+03  0.15733795798E+03  0.17770000000E+01 0.  1.
         15    1    3    3    0    0 -0.44935542162E+02  0.37872260923E+02 -0.33811194981E+03  0.34318560492E+03  0.17770000000E+01 0. -1.
</event>
<event>
 8    1  0.9532337E-006  0.5000033E+03  0.7546771E-02  0.9399802E-01
        -11   -1    0    0    0    0  0.00000000000E+00  0.00000000000E+00  0.50000000000E+03  0.50000000000E+03  0.00000000000E+00 0.  1.
         11   -1    0    0    0    0 -0.00000000000E+00 -0.00000000000E+00 -0.50000000000E+03  0.50000000000E+03  0.00000000000E+00 0. -1.
         23    2    1    2    0    0 -0.53155654391E+02 -0.29386226869E+02 -0.48788494726E+03  0.49999673887E+03  0.90972211132E+02 0.  0.
         23    2    1    2    0    0  0.53155654391E+02  0.29386226869E+02  0.48788494726E+03  0.50000326113E+03  0.91008051561E+02 0.  0.
        -11    1    4    4    0    0  0.47360004498E+02 -0.82740879175E+01  0.41484582885E+03  0.41762242788E+03  0.00000000000E+00 0.  1.
         11    1    4    4    0    0  0.57956498934E+01  0.37660314786E+02  0.73039118414E+02  0.82380833246E+02  0.00000000000E+00 0. -1.
        -15    1    3    3    0    0  0.82555153619E+01  0.19975312492E+02 -0.42720406047E+02  0.47909889009E+02  0.17770000000E+01 0.  1.
         15    1    3    3    0    0 -0.61411169753E+02 -0.49361539360E+02 -0.44516454121E+03  0.45208684987E+03  0.17770000000E+01 0. -1.
</event>
<event>
 8    1  0.9532337E-006  0.5012842E+03  0.7546771E-02  0.9396941E-01
        -11   -1    0    0    0    0  0.00000000000E+00  0.00000000000E+00  0.50000000000E+03  0.50000000000E+03  0.00000000000E+00 0.  1.
         11   -1    0    0    0    0 -0.00000000000E+00 -0.00000000000E+00 -0.50000000000E+03  0.50000000000E+03  0.00000000000E+00 0. -1.
         23    2    1    2    0    0  0.18561457167E+03  0.43663041439E+03 -0.12499776826E+03  0.49871575930E+03  0.89409610870E+02 0.  0.
         23    2    1    2    0    0 -0.18561457167E+03 -0.43663041439E+03  0.12499776826E+03  0.50128424070E+03  0.10277431542E+03 0.  0.
        -11    1    4    4    0    0  0.11093723128E+02 -0.75371784330E+01  0.30889719690E+01  0.13763048332E+02  0.00000000000E+00 0.  1.
         11    1    4    4    0    0 -0.19670829480E+03 -0.42909323596E+03  0.12190879629E+03  0.48752119236E+03  0.00000000000E+00 0. -1.
        -15    1    3    3    0    0  0.16902365773E+03  0.29683446380E+03 -0.79012536566E+02  0.35060780715E+03  0.17770000000E+01 0.  1.
         15    1    3    3    0    0  0.16590913947E+02  0.13979595060E+03 -0.45985231695E+02  0.14810795216E+03  0.17770000000E+01 0. -1.
</event>
<event>
 8    1  0.9532337E-006  0.5003442E+03  0.7546771E-02  0.9399040E-01
        -11   -1    0    0    0    0  0.00000000000E+00  0.00000000000E+00  0.50000000000E+03  0.50000000000E+03  0.00000000000E+00 0.  1.
         11   -1    0    0    0    0 -0.00000000000E+00 -0.00000000000E+00 -0.50000000000E+03  0.50000000000E+03  0.00000000000E+00 0. -1.
         23    2    1    2    0    0  0.29867314111E+02  0.53569540899E+02 -0.48804389335E+03  0.50034423979E+03  0.91628403283E+02 0.  0.
         23    2    1    2    0    0 -0.29867314111E+02 -0.53569540899E+02  0.48804389335E+03  0.49965576021E+03  0.87791142550E+02 0.  0.
        -11    1    4    4    0    0 -0.39135236573E+02 -0.48894942955E+02  0.48473060878E+03  0.48875970095E+03  0.00000000000E+00 0.  1.
         11    1    4    4    0    0  0.92679224621E+01 -0.46745979438E+01  0.33132845722E+01  0.10896059258E+02  0.00000000000E+00 0. -1.
        -15    1    3    3    0    0  0.95505936319E+01  0.92811557718E+01 -0.39561522058E+03  0.39584329498E+03  0.17770000000E+01 0. -1.
         15    1    3    3    0    0  0.20316720479E+02  0.44288385127E+02 -0.92428672767E+02  0.10450094481E+03  0.17770000000E+01 0.  1.
</event>
<event>
 8    1  0.9532337E-006  0.5000134E+03  0.7546771E-02  0.9399780E-01
        -11   -1    0    0    0    0  0.00000000000E+00  0.00000000000E+00  0.50000000000E+03  0.50000000000E+03  0.00000000000E+00 0. -1.
         11   -1    0    0    0    0 -0.00000000000E+00 -0.00000000000E+00 -0.50000000000E+03  0.50000000000E+03  0.00000000000E+00 0.  1.
         23    2    1    2    0    0  0.35706870987E+01  0.82999326478E+01 -0.49177957129E+03  0.49998658957E+03  0.89765273530E+02 0.  0.
         23    2    1    2    0    0 -0.35706870987E+01 -0.82999326478E+01  0.49177957129E+03  0.50001341043E+03  0.89914543778E+02 0.  0.
        -11    1    4    4    0    0 -0.22938514873E+02 -0.23922882885E+02  0.45117503167E+03  0.45239074813E+03  0.00000000000E+00 0. -1.
         11    1    4    4    0    0  0.19367827774E+02  0.15622950237E+02  0.40604539617E+02  0.47622662297E+02  0.00000000000E+00 0.  1.
        -15    1    3    3    0    0 -0.22342019640E+02  0.23681309361E+02 -0.42992119190E+03  0.43115584100E+03  0.17770000000E+01 0.  1.
         15    1    3    3    0    0  0.25912706739E+02 -0.15381376713E+02 -0.61858379389E+02  0.68830748578E+02  0.17770000000E+01 0. -1.
</event>
<event>
 8    1  0.9532337E-006  0.5001065E+03  0.7546771E-02  0.9399572E-01
        -11   -1    0    0    0    0  0.00000000000E+00  0.00000000000E+00  0.50000000000E+03  0.50000000000E+03  0.00000000000E+00 0. -1.
         11   -1    0    0    0    0 -0.00000000000E+00 -0.00000000000E+00 -0.50000000000E+03  0.50000000000E+03  0.00000000000E+00 0.  1.
         23    2    1    2    0    0  0.15822863060E+03 -0.24979996339E+02  0.46455867097E+03  0.49989353947E+03  0.91752342082E+02 0.  0.
         23    2    1    2    0    0 -0.15822863060E+03  0.24979996339E+02 -0.46455867097E+03  0.50010646053E+03  0.92905399907E+02 0.  0.
        -11    1    4    4    0    0 -0.71905661748E+02  0.32225823636E+02 -0.11122211431E+03  0.13630585685E+03  0.00000000000E+00 0. -1.
         11    1    4    4    0    0 -0.86322968854E+02 -0.72458272971E+01 -0.35333655666E+03  0.36380060368E+03  0.00000000000E+00 0.  1.
        -15    1    3    3    0    0  0.56890992749E+02 -0.43868229570E+01  0.30109412476E+03  0.30645824995E+03  0.17770000000E+01 0.  1.
         15    1    3    3    0    0  0.10133763785E+03 -0.20593173382E+02  0.16346454621E+03  0.19343528952E+03  0.17770000000E+01 0. -1.
</event>
<event>
 8    1  0.9532337E-006  0.5011410E+03  0.7546771E-02  0.9397260E-01
        -11   -1    0    0    0    0  0.00000000000E+00  0.00000000000E+00  0.50000000000E+03  0.50000000000E+03  0.00000000000E+00 0.  1.
         11   -1    0    0    0    0 -0.00000000000E+00 -0.00000000000E+00 -0.50000000000E+03  0.50000000000E+03  0.00000000000E+00 0. -1.
         23    2    1    2    0    0 -0.22602393286E+03 -0.31917836309E+03 -0.29817799607E+03  0.50114104368E+03  0.96283864821E+02 0.  0.
         23    2    1    2    0    0  0.22602393286E+03  0.31917836309E+03  0.29817799607E+03  0.49885895632E+03  0.83597220448E+02 0.  0.
        -11    1    4    4    0    0  0.73614258739E+01  0.22273116158E+02  0.47518434430E+02  0.52993243956E+02  0.00000000000E+00 0. -1.
         11    1    4    4    0    0  0.21866250699E+03  0.29690524694E+03  0.25065956164E+03  0.44586571237E+03  0.00000000000E+00 0.  1.
        -15    1    3    3    0    0 -0.57915061208E+02 -0.35994549247E+02 -0.84370257797E+02  0.10849543778E+03  0.17770000000E+01 0.  1.
         15    1    3    3    0    0 -0.16810887166E+03 -0.28318381385E+03 -0.21380773827E+03  0.39264560590E+03  0.17770000000E+01 0. -1.
</event>
<event>
 7    1  0.9532337E-006  0.5235808E+03  0.7546771E-02  0.9348539E-01
        -11   -1    0    0    0    0  0.00000000000E+00  0.00000000000E+00  0.50000000000E+03  0.50000000000E+03  0.00000000000E+00 0.  1.
         11   -1    0    0    0    0 -0.00000000000E+00 -0.00000000000E+00 -0.50000000000E+03  0.50000000000E+03  0.00000000000E+00 0. -1.
         23    2    1    2    0    0 -0.91360700182E+02  0.89684618645E+02  0.45022503047E+03  0.47641915091E+03  0.88783562278E+02 0.  0.
        -11    1    3    3    0    0 -0.86179644757E+02  0.10437150987E+03  0.43056118199E+03  0.45133499164E+03  0.00000000000E+00 0.  1.
         11    1    3    3    0    0 -0.51810554246E+01 -0.14686891222E+02  0.19663848478E+02  0.25084159265E+02  0.00000000000E+00 0. -1.
        -15    1    1    2    0    0  0.11336273451E+03 -0.79118795001E+02 -0.95541907742E+02  0.16805447677E+03  0.17770000000E+01 0.  1.
         15    1    1    2    0    0 -0.22002034325E+02 -0.10565823644E+02 -0.35468312273E+03  0.35552637233E+03  0.17770000000E+01 0. -1.
</event>
<event>
 8    1  0.9532337E-006  0.5000638E+03  0.7546771E-02  0.9399667E-01
        -11   -1    0    0    0    0  0.00000000000E+00  0.00000000000E+00  0.50000000000E+03  0.50000000000E+03  0.00000000000E+00 0. -1.
         11   -1    0    0    0    0 -0.00000000000E+00 -0.00000000000E+00 -0.50000000000E+03  0.50000000000E+03  0.00000000000E+00 0.  1.
         23    2    1    2    0    0  0.33545551390E+01 -0.23532272967E+02 -0.49104452596E+03  0.50006375001E+03  0.91509598884E+02 0.  0.
         23    2    1    2    0    0 -0.33545551390E+01  0.23532272967E+02  0.49104452596E+03  0.49993624999E+03  0.90810278412E+02 0.  0.
        -11    1    4    4    0    0  0.10736234775E+02 -0.32148055712E+02  0.12969525326E+03  0.13405082223E+03  0.00000000000E+00 0.  1.
         11    1    4    4    0    0 -0.14090789914E+02  0.55680328679E+02  0.36134927270E+03  0.36588542776E+03  0.00000000000E+00 0. -1.
        -15    1    3    3    0    0 -0.40695685594E+01  0.22711430587E+02 -0.36255374401E+03  0.36329154338E+03  0.17770000000E+01 0. -1.
         15    1    3    3    0    0  0.74241236984E+01 -0.46243703554E+02 -0.12849078195E+03  0.13677220663E+03  0.17770000000E+01 0.  1.
</event>
<event>
 8    1  0.9532337E-006  0.5000797E+03  0.7546771E-02  0.9399631E-01
        -11   -1    0    0    0    0  0.00000000000E+00  0.00000000000E+00  0.50000000000E+03  0.50000000000E+03  0.00000000000E+00 0.  1.
         11   -1    0    0    0    0 -0.00000000000E+00 -0.00000000000E+00 -0.50000000000E+03  0.50000000000E+03  0.00000000000E+00 0. -1.
         23    2    1    2    0    0 -0.40713983812E+03 -0.64610192611E+02 -0.26766998585E+03  0.49992028763E+03  0.91300317009E+02 0.  0.
         23    2    1    2    0    0  0.40713983812E+03  0.64610192611E+02  0.26766998585E+03  0.50007971237E+03  0.92169260797E+02 0.  0.
        -11    1    4    4    0    0  0.36213315067E+03  0.72106500665E+02  0.26477199497E+03  0.45436106300E+03  0.00000000000E+00 0.  1.
         11    1    4    4    0    0  0.45006687444E+02 -0.74963080534E+01  0.28979908743E+01  0.45718649370E+02  0.00000000000E+00 0. -1.
        -15    1    3    3    0    0 -0.14620222516E+03 -0.67935542669E+02 -0.10531162693E+03  0.19257212959E+03  0.17770000000E+01 0.  1.
         15    1    3    3    0    0 -0.26093761296E+03  0.33253500575E+01 -0.16235835892E+03  0.30734815804E+03  0.17770000000E+01 0. -1.
</event>
<event>
 8    1  0.9532337E-006  0.5000242E+03  0.7546771E-02  0.9399756E-01
        -11   -1    0    0    0    0  0.00000000000E+00  0.00000000000E+00  0.50000000000E+03  0.50000000000E+03  0.00000000000E+00 0. -1.
         11   -1    0    0    0    0 -0.00000000000E+00 -0.00000000000E+00 -0.50000000000E+03  0.50000000000E+03  0.00000000000E+00 0.  1.
         23    2    1    2    0    0 -0.50113818559E+01 -0.20019913995E+02 -0.49132327989E+03  0.50002417867E+03  0.90552211390E+02 0.  0.
         23    2    1    2    0    0  0.50113818559E+01  0.20019913995E+02  0.49132327989E+03  0.49997582133E+03  0.90284802989E+02 0.  0.
        -11    1    4    4    0    0 -0.14618049200E+02  0.14619062942E+02  0.21919917343E+02  0.30131165594E+02  0.00000000000E+00 0.  1.
         11    1    4    4    0    0  0.19629431056E+02  0.54008510524E+01  0.46940336255E+03  0.46984465574E+03  0.00000000000E+00 0. -1.
        -15    1    3    3    0    0 -0.91274909720E+01 -0.53468032352E+02 -0.21929536013E+03  0.22591094324E+03  0.17770000000E+01 0. -1.
         15    1    3    3    0    0  0.41161091162E+01  0.33448118357E+02 -0.27202791976E+03  0.27411323543E+03  0.17770000000E+01 0.  1.
</event>
<event>
 8    1  0.9532337E-006  0.5007456E+03  0.7546771E-02  0.9398143E-01
        -11   -1    0    0    0    0  0.00000000000E+00  0.00000000000E+00  0.50000000000E+03  0.50000000000E+03  0.00000000000E+00 0. -1.
         11   -1    0    0    0    0 -0.00000000000E+00 -0.00000000000E+00 -0.50000000000E+03  0.50000000000E+03  0.00000000000E+00 0.  1.
         23    2    1    2    0    0  0.24954319112E+03 -0.96061981401E+02  0.41184771427E+03  0.49925444949E+03  0.90203974884E+02 0.  0.
         23    2    1    2    0    0 -0.24954319112E+03  0.96061981401E+02 -0.41184771427E+03  0.50074555051E+03  0.98121649491E+02 0.  0.
        -11    1    4    4    0    0 -0.12099940850E+03  0.40237318694E+02 -0.11180824385E+03  0.16959063083E+03  0.00000000000E+00 0. -1.
         11    1    4    4    0    0 -0.12854378263E+03  0.55824662707E+02 -0.30003947042E+03  0.33115491968E+03  0.00000000000E+00 0.  1.
        -15    1    3    3    0    0  0.25533731144E+03 -0.85483917181E+02  0.38560235141E+03  0.47031582351E+03  0.17770000000E+01 0. -1.
         15    1    3    3    0    0 -0.57941203138E+01 -0.10578064220E+02  0.26245362861E+02  0.28938625979E+02  0.17770000000E+01 0.  1.
</event>
<event>
 8    1  0.9532337E-006  0.5000120E+03  0.7546771E-02  0.9399783E-01
        -11   -1    0    0    0    0  0.00000000000E+00  0.00000000000E+00  0.50000000000E+03  0.50000000000E+03  0.00000000000E+00 0.  1.
         11   -1    0    0    0    0 -0.00000000000E+00 -0.00000000000E+00 -0.50000000000E+03  0.50000000000E+03  0.00000000000E+00 0. -1.
         23    2    1    2    0    0  0.26143823578E+01 -0.19601816097E+02 -0.49139822364E+03  0.49998804473E+03  0.90137475485E+02 0.  0.
         23    2    1    2    0    0 -0.26143823578E+01  0.19601816097E+02  0.49139822364E+03  0.50001195527E+03  0.90270011789E+02 0.  0.
        -11    1    4    4    0    0 -0.31455776853E+02  0.50164794620E+01  0.42472983517E+03  0.42592260312E+03  0.00000000000E+00 0.  1.
         11    1    4    4    0    0  0.28841394495E+02  0.14585336635E+02  0.66668388465E+02  0.74089352148E+02  0.00000000000E+00 0. -1.
        -15    1    3    3    0    0  0.37573917748E+02 -0.35628328981E+02 -0.33124718750E+03  0.33527456521E+03  0.17770000000E+01 0. -1.
         15    1    3    3    0    0 -0.34959535390E+02  0.16026512884E+02 -0.16015103614E+03  0.16471347952E+03  0.17770000000E+01 0.  1.
</event>
<event>
 8    1  0.9532337E-006  0.5002403E+03  0.7546771E-02  0.9399272E-01
        -11   -1    0    0    0    0  0.00000000000E+00  0.00000000000E+00  0.50000000000E+03  0.50000000000E+03  0.00000000000E+00 0.  1.
         11   -1    0    0    0    0 -0.00000000000E+00 -0.00000000000E+00 -0.50000000000E+03  0.50000000000E+03  0.00000000000E+00 0. -1.
         23    2    1    2    0    0  0.15254501477E+01 -0.95912708223E+01 -0.49152455580E+03  0.49975973721E+03  0.89828094215E+02 0.  0.
         23    2    1    2    0    0 -0.15254501477E+01  0.95912708223E+01  0.49152455580E+03  0.50024026279E+03  0.92464112461E+02 0.  0.
        -11    1    4    4    0    0 -0.12666510457E+02  0.73030404568E+01  0.81640102238E+01  0.16745923384E+02  0.00000000000E+00 0. -1.
         11    1    4    4    0    0  0.11141060309E+02  0.22882303654E+01  0.48336054557E+03  0.48349433941E+03  0.00000000000E+00 0.  1.
        -15    1    3    3    0    0 -0.84682978158E+01 -0.16022650534E+02 -0.48632629626E+03  0.48666709521E+03  0.17770000000E+01 0. -1.
         15    1    3    3    0    0  0.99937479635E+01  0.64313797115E+01 -0.51982595406E+01  0.13092642002E+02  0.17770000000E+01 0.  1.
</event>
<event>
 8    1  0.9532337E-006  0.5000180E+03  0.7546771E-02  0.9399769E-01
        -11   -1    0    0    0    0  0.00000000000E+00  0.00000000000E+00  0.50000000000E+03  0.50000000000E+03  0.00000000000E+00 0. -1.
         11   -1    0    0    0    0 -0.00000000000E+00 -0.00000000000E+00 -0.50000000000E+03  0.50000000000E+03  0.00000000000E+00 0.  1.
         23    2    1    2    0    0  0.12895069839E+03 -0.68841893813E+02  0.46967257231E+03  0.50001802921E+03  0.89767563156E+02 0.  0.
         23    2    1    2    0    0 -0.12895069839E+03  0.68841893813E+02 -0.46967257231E+03  0.49998197079E+03  0.89566494736E+02 0.  0.
        -11    1    4    4    0    0 -0.12807220543E+03  0.64238466303E+02 -0.47300627469E+03  0.49423072168E+03  0.00000000000E+00 0.  1.
         11    1    4    4    0    0 -0.87849296052E+00  0.46034275097E+01  0.33337023849E+01  0.57512491086E+01  0.00000000000E+00 0. -1.
        -15    1    3    3    0    0 -0.98794035128E+01 -0.17238411076E+02  0.96169200384E+02  0.98216283078E+02  0.17770000000E+01 0.  1.
         15    1    3    3    0    0  0.13883010190E+03 -0.51603482737E+02  0.37350337193E+03  0.40180174613E+03  0.17770000000E+01 0. -1.
</event>
<event>
 7    1  0.9532337E-006  0.5091597E+03  0.7546771E-02  0.9379544E-01
        -11   -1    0    0    0    0  0.00000000000E+00  0.00000000000E+00  0.50000000000E+03  0.50000000000E+03  0.00000000000E+00 0.  1.
         11   -1    0    0    0    0 -0.00000000000E+00 -0.00000000000E+00 -0.50000000000E+03  0.50000000000E+03  0.00000000000E+00 0.  1.
         23    2    1    2    0    0  0.87004849645E+02 -0.56353351135E+02  0.47064305452E+03  0.49084031988E+03  0.93133188531E+02 0.  0.
        -11    1    1    2    0    0 -0.64381257919E+02 -0.35789696769E+02 -0.87177050956E+02  0.11413013178E+03  0.00000000000E+00 0.  1.
         11    1    1    2    0    0 -0.22623591727E+02  0.92143047905E+02 -0.38346600356E+03  0.39502954835E+03  0.00000000000E+00 0.  1.
        -15    1    3    3    0    0  0.59876179429E+02 -0.11013650464E+02  0.10492759563E+03  0.12132359792E+03  0.17770000000E+01 0. -1.
         15    1    3    3    0    0  0.27128670216E+02 -0.45339700671E+02  0.36571545889E+03  0.36951672195E+03  0.17770000000E+01 0.  1.
</event>
<event>
 8    1  0.9532337E-006  0.5017905E+03  0.7546771E-02  0.9395812E-01
        -11   -1    0    0    0    0  0.00000000000E+00  0.00000000000E+00  0.50000000000E+03  0.50000000000E+03  0.00000000000E+00 0.  1.
         11   -1    0    0    0    0 -0.00000000000E+00 -0.00000000000E+00 -0.50000000000E+03  0.50000000000E+03  0.00000000000E+00 0. -1.
         23    2    1    2    0    0 -0.12796422285E+03  0.24304810979E+03 -0.40614150398E+03  0.50179050087E+03  0.10674998596E+03 0.  0.
         23    2    1    2    0    0  0.12796422285E+03 -0.24304810979E+03  0.40614150398E+03  0.49820949913E+03  0.88399987357E+02 0.  0.
        -11    1    4    4    0    0  0.16101268977E+02 -0.85493974879E+02  0.75227529845E+02  0.11501152920E+03  0.00000000000E+00 0. -1.
         11    1    4    4    0    0  0.11186295387E+03 -0.15755413492E+03  0.33091397414E+03  0.38319796993E+03  0.00000000000E+00 0.  1.
        -15    1    3    3    0    0 -0.13882967815E+02  0.61038448356E+02 -0.31900270943E+02  0.70279541748E+02  0.17770000000E+01 0.  1.
         15    1    3    3    0    0 -0.11408125503E+03  0.18200966144E+03 -0.37424123304E+03  0.43151095912E+03  0.17770000000E+01 0. -1.
</event>
<event>
 8    1  0.9532337E-006  0.5002867E+03  0.7546771E-02  0.9399169E-01
        -11   -1    0    0    0    0  0.00000000000E+00  0.00000000000E+00  0.50000000000E+03  0.50000000000E+03  0.00000000000E+00 0.  1.
         11   -1    0    0    0    0 -0.00000000000E+00 -0.00000000000E+00 -0.50000000000E+03  0.50000000000E+03  0.00000000000E+00 0. -1.
         23    2    1    2    0    0 -0.11490844126E+03 -0.19030363076E+02  0.47793046379E+03  0.49971334535E+03  0.87919251071E+02 0.  0.
         23    2    1    2    0    0  0.11490844126E+03  0.19030363076E+02 -0.47793046379E+03  0.50028665465E+03  0.91121369681E+02 0.  0.
        -11    1    4    4    0    0  0.10891938876E+03 -0.16232449423E+02 -0.39287018284E+03  0.40801213980E+03  0.00000000000E+00 0. -1.
         11    1    4    4    0    0  0.59890524965E+01  0.35262812499E+02 -0.85060280954E+02  0.92274514851E+02  0.00000000000E+00 0.  1.
        -15    1    3    3    0    0 -0.11917656617E+03 -0.10936094451E+02  0.32234618431E+03  0.34385007249E+03  0.17770000000E+01 0.  1.
         15    1    3    3    0    0  0.42681249084E+01 -0.80942686246E+01  0.15558427948E+03  0.15586327285E+03  0.17770000000E+01 0. -1.
</event>
<event>
 8    1  0.9532337E-006  0.5003842E+03  0.7546771E-02  0.9398950E-01
        -11   -1    0    0    0    0  0.00000000000E+00  0.00000000000E+00  0.50000000000E+03  0.50000000000E+03  0.00000000000E+00 0. -1.
         11   -1    0    0    0    0 -0.00000000000E+00 -0.00000000000E+00 -0.50000000000E+03  0.50000000000E+03  0.00000000000E+00 0.  1.
         23    2    1    2    0    0 -0.40713116948E+02 -0.43022986142E+02 -0.48769875596E+03  0.50038423032E+03  0.95004032310E+02 0.  0.
         23    2    1    2    0    0  0.40713116948E+02  0.43022986142E+02  0.48769875596E+03  0.49961576968E+03  0.90869717266E+02 0.  0.
        -11    1    4    4    0    0  0.66797766482E+01 -0.27521618026E+02  0.92836068052E+02  0.97059746580E+02  0.00000000000E+00 0.  1.
         11    1    4    4    0    0  0.34033340300E+02  0.70544604167E+02  0.39486268791E+03  0.40255602310E+03  0.00000000000E+00 0. -1.
        -15    1    3    3    0    0 -0.35587459235E+02  0.16776483392E+01 -0.56349842674E+02  0.66691410670E+02  0.17770000000E+01 0. -1.
         15    1    3    3    0    0 -0.51256577131E+01 -0.44700634481E+02 -0.43134891329E+03  0.43369281965E+03  0.17770000000E+01 0.  1.
</event>
<event>
 8    1  0.9532337E-006  0.5003100E+03  0.7546771E-02  0.9399116E-01
        -11   -1    0    0    0    0  0.00000000000E+00  0.00000000000E+00  0.50000000000E+03  0.50000000000E+03  0.00000000000E+00 0.  1.
         11   -1    0    0    0    0 -0.00000000000E+00 -0.00000000000E+00 -0.50000000000E+03  0.50000000000E+03  0.00000000000E+00 0. -1.
         23    2    1    2    0    0  0.12176827037E+02  0.58583232637E+01 -0.49148877129E+03  0.49968999321E+03  0.89141920227E+02 0.  0.
         23    2    1    2    0    0 -0.12176827037E+02 -0.58583232637E+01  0.49148877129E+03  0.50031000679E+03  0.92554284171E+02 0.  0.
        -11    1    4    4    0    0  0.21872575175E+02  0.34365745563E+02  0.22576381982E+03  0.22940949491E+03  0.00000000000E+00 0. -1.
         11    1    4    4    0    0 -0.34049402212E+02 -0.40224068827E+02  0.26572495147E+03  0.27090051188E+03  0.00000000000E+00 0.  1.
        -15    1    3    3    0    0  0.14223674910E+02  0.15918496189E+02 -0.48833441842E+03  0.48880402350E+03  0.17770000000E+01 0. -1.
         15    1    3    3    0    0 -0.20468478733E+01 -0.10060172926E+02 -0.31543528733E+01  0.10885969711E+02  0.17770000000E+01 0.  1.
</event>
<event>
 7    1  0.9532337E-006  0.5051559E+03  0.7546771E-02  0.9388346E-01
        -11   -1    0    0    0    0  0.00000000000E+00  0.00000000000E+00  0.50000000000E+03  0.50000000000E+03  0.00000000000E+00 0.  1.
         11   -1    0    0    0    0 -0.00000000000E+00 -0.00000000000E+00 -0.50000000000E+03  0.50000000000E+03  0.00000000000E+00 0. -1.
         23    2    1    2    0    0 -0.30836905088E+03  0.37602721401E+03 -0.10191223035E+02  0.49484407232E+03  0.90988228173E+02 0.  0.
        -11    1    3    3    0    0 -0.80690105164E+02  0.11416664393E+03 -0.43078224579E+02  0.14628960691E+03  0.00000000000E+00 0. -1.
         11    1    3    3    0    0 -0.22767894571E+03  0.26186057008E+03  0.32887001545E+02  0.34855446541E+03  0.00000000000E+00 0.  1.
        -15    1    1    2    0    0  0.14866526158E+03 -0.28310974603E+03  0.17315006088E+02  0.32024280704E+03  0.17770000000E+01 0.  1.
         15    1    1    2    0    0  0.15970378929E+03 -0.92917467985E+02 -0.71237830536E+01  0.18491312064E+03  0.17770000000E+01 0. -1.
</event>
<event>
 8    1  0.9532337E-006  0.5003451E+03  0.7546771E-02  0.9399038E-01
        -11   -1    0    0    0    0  0.00000000000E+00  0.00000000000E+00  0.50000000000E+03  0.50000000000E+03  0.00000000000E+00 0.  1.
         11   -1    0    0    0    0 -0.00000000000E+00 -0.00000000000E+00 -0.50000000000E+03  0.50000000000E+03  0.00000000000E+00 0.  1.
         23    2    1    2    0    0  0.39687683549E+02  0.34497934968E+02 -0.48814871474E+03  0.50034514049E+03  0.96389170377E+02 0.  0.
         23    2    1    2    0    0 -0.39687683549E+02 -0.34497934968E+02  0.48814871474E+03  0.49965485951E+03  0.92739372337E+02 0.  0.
        -11    1    4    4    0    0 -0.56580703093E+02  0.10538211408E+02  0.29878450050E+03  0.30427718876E+03  0.00000000000E+00 0.  1.
         11    1    4    4    0    0  0.16893019544E+02 -0.45036146376E+02  0.18936421424E+03  0.19537767075E+03  0.00000000000E+00 0.  1.
        -15    1    3    3    0    0 -0.88261568512E+01  0.95765072377E+01 -0.49040872407E+01  0.14029195854E+02  0.17770000000E+01 0. -1.
         15    1    3    3    0    0  0.48513840400E+02  0.24921427731E+02 -0.48324462750E+03  0.48631594464E+03  0.17770000000E+01 0.  1.
</event>
<event>
 8    1  0.9532337E-006  0.5000818E+03  0.7546771E-02  0.9399627E-01
        -11   -1    0    0    0    0  0.00000000000E+00  0.00000000000E+00  0.50000000000E+03  0.50000000000E+03  0.00000000000E+00 0.  1.
         11   -1    0    0    0    0 -0.00000000000E+00 -0.00000000000E+00 -0.50000000000E+03  0.50000000000E+03  0.00000000000E+00 0. -1.
         23    2    1    2    0    0  0.19649743512E+02  0.56894727168E+01  0.49115458387E+03  0.50008176306E+03  0.91817547132E+02 0.  0.
         23    2    1    2    0    0 -0.19649743512E+02 -0.56894727168E+01 -0.49115458387E+03  0.49991823694E+03  0.90922691592E+02 0.  0.
        -11    1    4    4    0    0 -0.37388104265E+02 -0.20495043023E+02 -0.45511681105E+03  0.45710964640E+03  0.00000000000E+00 0. -1.
         11    1    4    4    0    0  0.17738360753E+02  0.14805570306E+02 -0.36037772825E+02  0.42808590545E+02  0.00000000000E+00 0.  1.
        -15    1    3    3    0    0  0.26232670129E+02  0.46107338098E+02  0.27530089988E+03  0.28037079522E+03  0.17770000000E+01 0.  1.
         15    1    3    3    0    0 -0.65829266174E+01 -0.40417865381E+02  0.21585368400E+03  0.21971096784E+03  0.17770000000E+01 0. -1.
</event>
<event>
 8    1  0.9532337E-006  0.5000345E+03  0.7546771E-02  0.9399732E-01
        -11   -1    0    0    0    0  0.00000000000E+00  0.00000000000E+00  0.50000000000E+03  0.50000000000E+03  0.00000000000E+00 0.  1.
         11   -1    0    0    0    0 -0.00000000000E+00 -0.00000000000E+00 -0.50000000000E+03  0.50000000000E+03  0.00000000000E+00 0. -1.
         23    2    1    2    0    0  0.36054461330E+02  0.18689692019E+03  0.45315836098E+03  0.50003454741E+03  0.91932940335E+02 0.  0.
         23    2    1    2    0    0 -0.36054461330E+02 -0.18689692019E+03 -0.45315836098E+03  0.49996545259E+03  0.91556379874E+02 0.  0.
        -11    1    4    4    0    0 -0.33119410674E+02 -0.17358972813E+03 -0.45309450333E+03  0.48633827530E+03  0.00000000000E+00 0. -1.
         11    1    4    4    0    0 -0.29350506558E+01 -0.13307192063E+02 -0.63857648780E-01  0.13627177285E+02  0.00000000000E+00 0.  1.
        -15    1    3    3    0    0 -0.77958242357E+00  0.17027773954E+03  0.38071625432E+03  0.41706491145E+03  0.17770000000E+01 0.  1.
         15    1    3    3    0    0  0.36834043753E+02  0.16619180650E+02  0.72442106666E+02  0.82969635964E+02  0.17770000000E+01 0. -1.
</event>
<event>
 8    1  0.9532337E-006  0.5008936E+03  0.7546771E-02  0.9397813E-01
        -11   -1    0    0    0    0  0.00000000000E+00  0.00000000000E+00  0.50000000000E+03  0.50000000000E+03  0.00000000000E+00 0. -1.
         11   -1    0    0    0    0 -0.00000000000E+00 -0.00000000000E+00 -0.50000000000E+03  0.50000000000E+03  0.00000000000E+00 0.  1.
         23    2    1    2    0    0 -0.19606206398E+03  0.11806429964E+01 -0.45091002128E+03  0.50089355592E+03  0.95565580723E+02 0.  0.
         23    2    1    2    0    0  0.19606206398E+03 -0.11806429964E+01  0.45091002128E+03  0.49910644408E+03  0.85706874744E+02 0.  0.
        -11    1    4    4    0    0  0.13510031338E+03  0.38874463028E+02  0.31199047155E+03  0.34220077862E+03  0.00000000000E+00 0.  1.
         11    1    4    4    0    0  0.60961750601E+02 -0.40055106025E+02  0.13891954974E+03  0.15690566546E+03  0.00000000000E+00 0. -1.
        -15    1    3    3    0    0 -0.19929348104E+03  0.17100412258E+02 -0.43084008783E+03  0.47501226794E+03  0.17770000000E+01 0.  1.
         15    1    3    3    0    0  0.32314170628E+01 -0.15919769261E+02 -0.20069933452E+02  0.25881287977E+02  0.17770000000E+01 0. -1.
</event>
<event>
 8    1  0.9532337E-006  0.5001806E+03  0.7546771E-02  0.9399406E-01
        -11   -1    0    0    0    0  0.00000000000E+00  0.00000000000E+00  0.50000000000E+03  0.50000000000E+03  0.00000000000E+00 0. -1.
         11   -1    0    0    0    0 -0.00000000000E+00 -0.00000000000E+00 -0.50000000000E+03  0.50000000000E+03  0.00000000000E+00 0.  1.
         23    2    1    2    0    0  0.11678025846E+02 -0.16054975650E+00 -0.49157220817E+03  0.50018056699E+03  0.91656760207E+02 0.  0.
         23    2    1    2    0    0 -0.11678025846E+02  0.16054975650E+00  0.49157220817E+03  0.49981943301E+03  0.89665086323E+02 0.  0.
        -11    1    4    4    0    0 -0.34321396061E+02  0.16544676074E+02  0.43554021301E+03  0.43720357007E+03  0.00000000000E+00 0. -1.
         11    1    4    4    0    0  0.22643370216E+02 -0.16384126318E+02  0.56031995156E+02  0.62615862935E+02  0.00000000000E+00 0.  1.
        -15    1    3    3    0    0 -0.23626277415E+01  0.27869321581E+02 -0.43138889711E+03  0.43229829907E+03  0.17770000000E+01 0.  1.
         15    1    3    3    0    0  0.14040653587E+02 -0.28029871337E+02 -0.60183311053E+02  0.67882267925E+02  0.17770000000E+01 0. -1.
</event>
<event>
 8    1  0.9532337E-006  0.5007565E+03  0.7546771E-02  0.9398118E-01
        -11   -1    0    0    0    0  0.00000000000E+00  0.00000000000E+00  0.50000000000E+03  0.50000000000E+03  0.00000000000E+00 0.  1.
         11   -1    0    0    0    0 -0.00000000000E+00 -0.00000000000E+00 -0.50000000000E+03  0.50000000000E+03  0.00000000000E+00 0. -1.
         23    2    1    2    0    0 -0.15150708159E+02 -0.14797402316E+02 -0.49173183426E+03  0.49924346407E+03  0.83638104427E+02 0.  0.
         23    2    1    2    0    0  0.15150708159E+02  0.14797402316E+02  0.49173183426E+03  0.50075653593E+03  0.92241012443E+02 0.  0.
        -11    1    4    4    0    0 -0.87986348744E+01 -0.36498182941E+02  0.17175935623E+03  0.17581470299E+03  0.00000000000E+00 0.  1.
         11    1    4    4    0    0  0.23949343033E+02  0.51295585257E+02  0.31997247803E+03  0.32494183294E+03  0.00000000000E+00 0. -1.
        -15    1    3    3    0    0  0.30369895044E+02  0.40506231598E+00 -0.98549869360E+02  0.10313936727E+03  0.17770000000E+01 0.  1.
         15    1    3    3    0    0 -0.45520603202E+02 -0.15202464632E+02 -0.39318196490E+03  0.39610409680E+03  0.17770000000E+01 0. -1.
</event>
<event>
 8    1  0.9532337E-006  0.5003079E+03  0.7546771E-02  0.9399121E-01
        -11   -1    0    0    0    0  0.00000000000E+00  0.00000000000E+00  0.50000000000E+03  0.50000000000E+03  0.00000000000E+00 0.  1.
         11   -1    0    0    0    0 -0.00000000000E+00 -0.00000000000E+00 -0.50000000000E+03  0.50000000000E+03  0.00000000000E+00 0. -1.
         23    2    1    2    0    0 -0.13277818715E+00  0.23732419618E+03 -0.43007255235E+03  0.50030793395E+03  0.94988613898E+02 0.  0.
         23    2    1    2    0    0  0.13277818715E+00 -0.23732419618E+03  0.43007255235E+03  0.49969206605E+03  0.91689524275E+02 0.  0.
        -11    1    4    4    0    0 -0.80082303743E+01 -0.23625930047E+03  0.43085403926E+03  0.49144459704E+03  0.00000000000E+00 0.  1.
         11    1    4    4    0    0  0.81410085615E+01 -0.10648957178E+01 -0.78148690998E+00  0.82474690105E+01  0.00000000000E+00 0. -1.
        -15    1    3    3    0    0  0.31391656261E+02  0.18075307280E+03 -0.36482549542E+03  0.40836002406E+03  0.17770000000E+01 0. -1.
         15    1    3    3    0    0 -0.31524434448E+02  0.56571123379E+02 -0.65247056930E+02  0.91947909899E+02  0.17770000000E+01 0.  1.
</event>
<event>
 8    1  0.9532337E-006  0.5004190E+03  0.7546771E-02  0.9398873E-01
        -11   -1    0    0    0    0  0.00000000000E+00  0.00000000000E+00  0.50000000000E+03  0.50000000000E+03  0.00000000000E+00 0.  1.
         11   -1    0    0    0    0 -0.00000000000E+00 -0.00000000000E+00 -0.50000000000E+03  0.50000000000E+03  0.00000000000E+00 0. -1.
         23    2    1    2    0    0 -0.17010097268E+01  0.51680108620E+01 -0.49200162716E+03  0.49958103352E+03  0.86521709184E+02 0.  0.
         23    2    1    2    0    0  0.17010097268E+01 -0.51680108620E+01  0.49200162716E+03  0.50041896648E+03  0.91235624174E+02 0.  0.
        -11    1    4    4    0    0 -0.39107789076E+02 -0.15733425878E+02  0.14938020112E+03  0.15521405975E+03  0.00000000000E+00 0. -1.
         11    1    4    4    0    0  0.40808798803E+02  0.10565415016E+02  0.34262142603E+03  0.34520490673E+03  0.00000000000E+00 0.  1.
        -15    1    3    3    0    0  0.37851271381E+02 -0.55493240855E+00 -0.35020476198E+03  0.35224928635E+03  0.17770000000E+01 0. -1.
         15    1    3    3    0    0 -0.39552281107E+02  0.57229432705E+01 -0.14179686518E+03  0.14733174717E+03  0.17770000000E+01 0.  1.
</event>
<event>
 8    1  0.9532337E-006  0.5001156E+03  0.7546771E-02  0.9399551E-01
        -11   -1    0    0    0    0  0.00000000000E+00  0.00000000000E+00  0.50000000000E+03  0.50000000000E+03  0.00000000000E+00 0.  1.
         11   -1    0    0    0    0 -0.00000000000E+00 -0.00000000000E+00 -0.50000000000E+03  0.50000000000E+03  0.00000000000E+00 0. -1.
         23    2    1    2    0    0 -0.78960058983E+02 -0.18038541851E+03 -0.45034871980E+03  0.49988439228E+03  0.91087024813E+02 0.  0.
         23    2    1    2    0    0  0.78960058983E+02  0.18038541851E+03  0.45034871980E+03  0.50011560772E+03  0.92347504183E+02 0.  0.
        -11    1    4    4    0    0  0.47276893345E+02  0.23642337470E+02  0.71652484465E+02  0.89040121829E+02  0.00000000000E+00 0. -1.
         11    1    4    4    0    0  0.31683165638E+02  0.15674308104E+03  0.37869623534E+03  0.41107548589E+03  0.00000000000E+00 0.  1.
        -15    1    3    3    0    0 -0.26319349690E+02 -0.55425541933E+01 -0.11422056234E+03  0.11735809587E+03  0.17770000000E+01 0.  1.
         15    1    3    3    0    0 -0.52640709293E+02 -0.17484286432E+03 -0.33612815746E+03  0.38252629641E+03  0.17770000000E+01 0. -1.
</event>
<event>
 8    1  0.9532337E-006  0.5007908E+03  0.7546771E-02  0.9398042E-01
        -11   -1    0    0    0    0  0.00000000000E+00  0.00000000000E+00  0.50000000000E+03  0.50000000000E+03  0.00000000000E+00 0.  1.
         11   -1    0    0    0    0 -0.00000000000E+00 -0.00000000000E+00 -0.50000000000E+03  0.50000000000E+03  0.00000000000E+00 0. -1.
         23    2    1    2    0    0 -0.42398993153E+03  0.14681483602E+03 -0.19987756356E+03  0.50079079803E+03  0.97561902724E+02 0.  0.
         23    2    1    2    0    0  0.42398993153E+03 -0.14681483602E+03  0.19987756356E+03  0.49920920197E+03  0.89088320276E+02 0.  0.
        -11    1    4    4    0    0  0.76140927331E+02 -0.53976648643E+02  0.15134267069E+02  0.94551390541E+02  0.00000000000E+00 0. -1.
         11    1    4    4    0    0  0.34784900420E+03 -0.92838187372E+02  0.18474329649E+03  0.40465781143E+03  0.00000000000E+00 0.  1.
        -15    1    3    3    0    0 -0.21032342944E+03  0.72768096322E+02 -0.46012685683E+02  0.22726958834E+03  0.17770000000E+01 0.  1.
         15    1    3    3    0    0 -0.21366650209E+03  0.74046739694E+02 -0.15386487787E+03  0.27352120968E+03  0.17770000000E+01 0. -1.
</event>
<event>
 8    1  0.9532337E-006  0.5013477E+03  0.7546771E-02  0.9396799E-01
        -11   -1    0    0    0    0  0.00000000000E+00  0.00000000000E+00  0.50000000000E+03  0.50000000000E+03  0.00000000000E+00 0.  1.
         11   -1    0    0    0    0 -0.00000000000E+00 -0.00000000000E+00 -0.50000000000E+03  0.50000000000E+03  0.00000000000E+00 0. -1.
         23    2    1    2    0    0 -0.10065982082E+01  0.34132924218E+02 -0.48900022954E+03  0.50134769387E+03  0.10517706927E+03 0.  0.
         23    2    1    2    0    0  0.10065982082E+01 -0.34132924218E+02  0.48900022954E+03  0.49865230613E+03  0.91470367671E+02 0.  0.
        -11    1    4    4    0    0  0.23483858540E+02 -0.26199311771E+02  0.64406301467E+02  0.73389830480E+02  0.00000000000E+00 0. -1.
         11    1    4    4    0    0 -0.22477260332E+02 -0.79336124464E+01  0.42459392808E+03  0.42526247565E+03  0.00000000000E+00 0.  1.
        -15    1    3    3    0    0  0.28342575218E+02 -0.11865780162E+02 -0.48257581557E+02  0.57236790752E+02  0.17770000000E+01 0.  1.
         15    1    3    3    0    0 -0.29349173427E+02  0.45998704380E+02 -0.44074264799E+03  0.44411090312E+03  0.17770000000E+01 0. -1.
</event>
<event>
 8    1  0.9532337E-006  0.5002331E+03  0.7546771E-02  0.9399288E-01
        -11   -1    0    0    0    0  0.00000000000E+00  0.00000000000E+00  0.50000000000E+03  0.50000000000E+03  0.00000000000E+00 0.  1.
         11   -1    0    0    0    0 -0.00000000000E+00 -0.00000000000E+00 -0.50000000000E+03  0.50000000000E+03  0.00000000000E+00 0.  1.
         23    2    1    2    0    0 -0.25026855395E+02 -0.20683872076E+02 -0.49032470601E+03  0.49976694829E+03  0.91074251158E+02 0.  0.
         23    2    1    2    0    0  0.25026855395E+02  0.20683872076E+02  0.49032470601E+03  0.50023305171E+03  0.93598197888E+02 0.  0.
        -11    1    4    4    0    0  0.36777605801E+02 -0.10744336900E+02  0.42566591511E+03  0.42738683222E+03  0.00000000000E+00 0.  1.
         11    1    4    4    0    0 -0.11750750406E+02  0.31428208976E+02  0.64658790894E+02  0.72846219493E+02  0.00000000000E+00 0.  1.
        -15    1    3    3    0    0 -0.58613596324E+02 -0.62862390001E+01 -0.26427831068E+03  0.27077897574E+03  0.17770000000E+01 0. -1.
         15    1    3    3    0    0  0.33586740929E+02 -0.14397633076E+02 -0.22604639532E+03  0.22898797255E+03  0.17770000000E+01 0.  1.
</event>
<event>
 8    1  0.9532337E-006  0.5002176E+03  0.7546771E-02  0.9399323E-01
        -11   -1    0    0    0    0  0.00000000000E+00  0.00000000000E+00  0.50000000000E+03  0.50000000000E+03  0.00000000000E+00 0. -1.
         11   -1    0    0    0    0 -0.00000000000E+00 -0.00000000000E+00 -0.50000000000E+03  0.50000000000E+03  0.00000000000E+00 0.  1.
         23    2    1    2    0    0  0.19565180041E+02  0.27612647904E+02 -0.49015762683E+03  0.49978235042E+03  0.91556780537E+02 0.  0.
         23    2    1    2    0    0 -0.19565180041E+02 -0.27612647904E+02  0.49015762683E+03  0.50021764958E+03  0.93903904169E+02 0.  0.
        -11    1    4    4    0    0  0.56307045994E+01 -0.29263742647E+02  0.42826814636E+02  0.52174778579E+02  0.00000000000E+00 0.  1.
         11    1    4    4    0    0 -0.25195884641E+02  0.16510947424E+01  0.44733081219E+03  0.44804287100E+03  0.00000000000E+00 0. -1.
        -15    1    3    3    0    0  0.14466949588E+02 -0.33298114338E+02 -0.17126192096E+03  0.17507672703E+03  0.17770000000E+01 0. -1.
         15    1    3    3    0    0  0.50982304532E+01  0.60910762243E+02 -0.31889570587E+03  0.32470562339E+03  0.17770000000E+01 0.  1.
</event>
<event>
 8    1  0.9532337E-006  0.5008008E+03  0.7546771E-02  0.9398020E-01
        -11   -1    0    0    0    0  0.00000000000E+00  0.00000000000E+00  0.50000000000E+03  0.50000000000E+03  0.00000000000E+00 0. -1.
         11   -1    0    0    0    0 -0.00000000000E+00 -0.00000000000E+00 -0.50000000000E+03  0.50000000000E+03  0.00000000000E+00 0. -1.
         23    2    1    2    0    0 -0.10843409181E+02  0.31929846510E+02 -0.49140187536E+03  0.49919923856E+03  0.81160224532E+02 0.  0.
         23    2    1    2    0    0  0.10843409181E+02 -0.31929846510E+02  0.49140187536E+03  0.50080076144E+03  0.90490358240E+02 0.  0.
        -11    1    4    4    0    0 -0.99386003038E+01 -0.20994007107E+02  0.46454269199E+03  0.46512303403E+03  0.00000000000E+00 0. -1.
         11    1    4    4    0    0  0.20782009485E+02 -0.10935839403E+02  0.26859183374E+02  0.35677727411E+02  0.00000000000E+00 0. -1.
        -15    1    3    3    0    0 -0.34307210019E+02  0.40488646559E+02 -0.42372154703E+03  0.42703562182E+03  0.17770000000E+01 0. -1.
         15    1    3    3    0    0  0.23463800838E+02 -0.85588000488E+01 -0.67680328333E+02  0.72163616735E+02  0.17770000000E+01 0.  1.
</event>
